128
Energy =  -1284.5511239580
 Au        23.4924154565       22.1546605045       23.4994388190
 Au        23.4998556709       25.0441793063       22.1518385090
 Au        25.8298178199       23.4266394812       21.8730437215
 Au        21.9910855867       20.0391119993       22.5473921241
 Au        22.7130914964       23.2528107018       25.9932102057
 Au        22.8963782244       26.2430872473       24.6137770468
 Au        21.2918675482       26.7341558085       22.2788533205
 Au        25.0869482935       24.1625961262       24.7299721650
 Au        24.1023453145       23.9254015656       19.6523024414
 Au        21.9037987212       22.5076359483       21.1667989224
 Au        24.9879969489       21.5200310254       25.7346232318
 Au        21.1628643785       24.2281789398       23.5647236826
 Au        25.7149459380       26.0225544171       20.7795939374
 Au        23.5092213809       28.1224940476       20.7153698471
 Au        24.2711647996       20.9452561507       21.0575209873
 Au        19.9428924718       25.4847601103       27.0610805379
 Au        25.5759949919       27.4042221163       23.5256402346
 Au        22.8528469338       21.1919853099       17.5342400434
 Au        27.0432162466       21.5432087757       18.6620817769
 Au        21.4315597534       25.5181744245       19.4567575570
 Au        23.4877281398       18.9723504731       24.9840276968
 Au        28.0652775303       25.1234786635       18.8389788424
 Au        26.3884488763       20.2623423670       23.2122383271
 Au        18.9377924203       27.6535889247       24.2016073591
 Au        20.5936121638       21.1675909377       25.1266327244
 Au        24.1330849040       26.1035963328       28.0747826368
 Au        21.1977557219       18.6730326411       19.7427874061
 Au        25.7777205934       22.7884800333       28.5874775106
  S        18.3508468270       27.0840560035       26.4005832442
  S        25.5233423582       19.8686607998       19.2818298351
  S        25.3610356040       18.2085459023       23.7810083267
  S        26.9101069791       25.7551548087       24.5460394142
  S        20.0877394740       23.6837288839       20.0648863094
  S        24.1479565647       23.1388338642       17.3622692509
  S        22.8509115714       27.4927441779       26.6878534739
  S        19.2607236260       22.9355151743       24.3260548538
  S        27.5768035041       27.2237102650       19.7900736285
  S        27.7277863306       22.0067877001       22.3723642546
  S        21.6129961951       19.4096618958       26.3384116455
  S        22.5970882847       27.4111250837       18.6556172021
  S        25.4074069968       24.8651750486       29.6234313321
  S        28.6408726015       23.0704678787       17.8599174870
  S        19.4392360784       28.2738860684       21.9840155849
  S        21.4536428781       23.9283360341       27.9523100074
  S        24.4228500570       29.2398074443       22.5854516921
  S        20.7052249410       18.0668351649       21.9707302798
  S        21.5665912823       19.2173810412       17.4865710923
  S        26.2722027274       20.6939462850       27.6168577732
  C        18.8299820956       28.5668949275       27.3770795650
  C        24.1810007719       24.4741052500       30.9359713723
  C        25.1443252933       19.5352715562       28.4939843041
  C        26.5689874751       18.5542280467       20.0251543520
  C        20.3992540459       22.5190330448       28.4776215110
  C        22.7848587708       17.9547042267       16.9376247391
  C        28.1579670595       23.2785358074       16.0976952094
  C        28.7939105028       27.3924895008       21.1587437602
  C        25.7563412470       30.2476381867       21.8217248390
  C        21.2723828442       28.6522307031       18.3694520232
  C        23.8884813465       28.9866547235       26.4373807893
  C        23.1198110532       24.2973940501       16.3765348518
  C        28.6068499863       22.6660460237       23.8394072598
  C        27.2668449754       26.3766963329       26.2320353662
  C        18.3833857401       22.2367472017       22.8763684357
  C        21.8341819869       16.6502081991       22.2912693788
  C        26.4763812771       17.5355225609       25.0754145115
  C        18.2229184208       27.3401814201       20.9682002843
  C        19.7238073053       22.7943812487       18.5051812185
  H        27.9080745877       27.2612911568       26.1479273135
  H        27.7969544068       25.5817001852       26.7706262318
  H        26.3419536498       26.6214256135       26.7740459517
  H        25.2811703140       31.0735052836       21.2796158445
  H        26.3579930793       29.6482225484       21.1298271735
  H        26.3845987239       30.6464854228       22.6261904439
  H        23.3634770929       29.6376381699       25.7287552014
  H        24.8712114109       28.7283425010       26.0258352736
  H        23.9984193313       29.4923512446       27.4030959657
  H        18.2175373292       29.4084791300       27.0350407513
  H        19.8930418234       28.7942226336       27.2538222670
  H        18.6140157870       28.3537548039       28.4301934068
  H        18.5690585361       27.3598053330       19.9276903883
  H        17.2530748158       27.8439298396       21.0505323464
  H        18.1385469641       26.3010963471       21.2979493495
  H        20.6438118023       28.2954924483       17.5456844481
  H        21.7545768164       29.5947975990       18.0852041973
  H        20.6694411898       28.8022409886       19.2716567719
  H        17.8935008832       23.0641790289       22.3511650635
  H        17.6327342937       21.5305130346       23.2488524854
  H        19.0790049676       21.7313076113       22.1983540517
  H        19.0859581460       23.4316940165       17.8824942287
  H        19.1880027199       21.8741562586       18.7682806684
  H        20.6464785078       22.5308326150       17.9682707876
  H        23.0090076920       23.8830723295       15.3683319356
  H        23.6511367749       25.2552224331       16.3340830172
  H        22.1372373224       24.4530953191       16.8371568607
  H        23.0275936308       18.1651789715       15.8897942569
  H        22.3123439411       16.9696342754       17.0184280796
  H        23.6940851442       17.9960267168       17.5452468630
  H        27.1846162006       18.1256887544       19.2262041134
  H        25.9031416785       17.7882485043       20.4383450716
  H        27.2051242733       18.9532207084       20.8233686464
  H        28.3685174093       22.3341430625       15.5830095020
  H        28.7725864991       24.0791511628       15.6715654917
  H        27.0956278325       23.5235040909       16.0059282392
  H        29.7660010172       27.6452052778       20.7202235401
  H        28.8706514079       26.4715254746       21.7431131350
  H        28.4540627015       28.2052122888       21.8120594206
  H        29.0987174506       23.5992374749       23.5432726008
  H        29.3559656087       21.9251293374       24.1408150530
  H        27.9117879904       22.8620060942       24.6625128211
  H        25.1132027227       18.5993948403       27.9230741815
  H        24.1321087506       19.9408034775       28.5728734058
  H        25.5573186104       19.3509268545       29.4923150366
  H        23.9378478514       25.4115305338       31.4490948976
  H        24.6478922545       23.7762138532       31.6396145765
  H        23.2729045082       24.0385519443       30.5078301341
  H        21.0599737268       21.7076888084       28.8031578900
  H        19.7657621329       22.1658311701       27.6560735506
  H        19.7807759754       22.8592689100       29.3158972057
  H        21.4218240580       15.7677307505       21.7888918036
  H        21.8656053706       16.4836542024       23.3748146573
  H        22.8462102291       16.8520130902       21.9302373336
  H        27.4102281713       17.2362858662       24.5851861258
  H        25.9948163665       16.6582622965       25.5216811107
  H        26.6874343208       18.2876765165       25.8433031014
  C        20.4945183944       17.9884764150       26.0196532409
  H        20.9725559020       17.0815658904       26.4065064504
  H        20.2860358724       17.8837836953       24.9493561933
  H        19.5597698854       18.1744708179       26.5614910658
