158
Energy =  -1687.7405786285
 Au        22.4507385609       21.5758355492       24.3374118903
 Au        23.0698302092       23.1865743938       21.9851693332
 Au        21.9298724861       25.7806535533       22.7139564394
 Au        24.3359443025       25.4490401735       20.7453438436
 Au        27.2265696752       24.4917517346       24.6603864805
 Au        20.3960072798       23.2266885864       23.2286555188
 Au        24.5262044039       25.0800530075       23.6609768928
 Au        22.2027731202       24.3252485573       25.2602297407
 Au        20.3831022728       22.3562334443       26.2612480542
 Au        21.4594498733       20.8381172662       21.6704274019
 Au        26.0029706559       23.2408519547       22.0524172043
 Au        25.2043564142       22.4576154428       24.7471783171
 Au        24.8242777519       24.8134871873       26.4782846183
 Au        25.9029508482       27.1958481342       25.0623521628
 Au        24.4519013245       20.6607940355       22.5276191691
 Au        24.5120906509       19.7583226685       25.4026226495
 Au        24.2198675388       27.6995038134       22.4906845533
 Au        22.5409782738       22.9158568195       19.0294761212
 Au        19.7774428293       20.4891453630       24.1634560409
 Au        26.8615617252       26.0977539977       22.3088071502
 Au        23.3317570199       22.2176392792       26.9840387709
 Au        19.7928635877       18.1734415625       21.6196347154
 Au        23.0483350628       27.0572021136       25.2650432633
 Au        22.1875810825       27.8739843930       20.0506166309
 Au        21.8518306317       19.7013694766       26.4411777417
 Au        23.2133606380       18.2361994798       20.5400797198
 Au        17.4370592011       22.5008279519       24.7632116144
 Au        25.7602948104       28.0515757816       19.7181252871
 Au        22.3142057635       18.8109834256       23.5253516809
 Au        23.4366089007       16.8967156075       26.1172543853
 Au        20.2630083740       25.7986073331       27.0448836940
 Au        24.1729383604       29.9469607931       25.0988251953
 Au        24.8052863230       27.8573964609       27.9409299136
 Au        29.2880788389       24.0206270382       22.1784590515
 Au        24.1641702731       19.3336377388       28.6237963025
 Au        18.5182234454       20.0090632491       27.1193075829
 Au        29.2350054269       26.8955667721       24.2784288099
 Au        27.7108130176       21.1967248747       25.8296764539
  S        25.3553746890       19.1731487210       20.8123002388
  S        21.1649367236       17.2361306342       19.9487971217
  S        24.0224322764       21.6014509489       29.2521998656
  S        21.0429022214       21.1095466403       19.2710518391
  S        25.0464135038       25.6607563738       28.7616712830
  S        20.3730653766       26.9409805540       21.2268914450
  S        21.0975955467       27.9294565673       26.4720213984
  S        23.9750275035       24.6946109136       18.4428429370
  S        27.8752938387       27.3510750709       20.4891500977
  S        18.0558052437       23.9076914088       22.9763016284
  S        30.7973879946       25.3816013058       23.3698425316
  S        16.5973300334       21.2688785985       26.5878089446
  S        18.1944844030       18.9194860676       23.1821614226
  S        19.2111764857       23.8378022623       27.8286370355
  S        20.2354725258       18.5857638075       27.8693734698
  S        24.6835457024       30.1481420799       27.3907206886
  S        23.7458650114       30.0623255417       22.7885445801
  S        23.8189340023       29.0100167777       18.7837937579
  S        24.5359236558       17.0460086625       28.1999795729
  S        28.9276483197       23.2203770634       25.8835900918
  S        22.3761040177       16.4402912382       24.0655042573
  S        26.7908501853       19.0256144955       25.9191243603
  S        28.0379709570       22.4386495032       20.9637616346
  C        19.9800811076       28.5683818063       25.1646581517
  C        20.6619958397       16.0151552506       24.5690648964
  C        21.3556793558       15.4777569312       20.4404658361
  C        25.1752501416       31.0188536420       22.1466385990
  C        31.6797344787       26.3251485891       22.0636589981
  S        27.8954714299       28.5766193055       25.2362471519
  C        28.5948862310       28.8794952683       21.2072219719
  C        23.1280166051       30.7184786879       28.1799771587
  C        19.9682265691       23.5178273639       29.4696401686
  C        17.0683554159       19.9542660828       22.1660817983
  C        20.5916305598       19.1958428247       29.5644981665
  C        25.5473158218       20.1618195368       19.2769781568
  C        25.7919110129       22.0562831686       29.4334237985
  C        17.8881857661       25.5834065425       23.7059934718
  C        15.4612326662       20.0246898366       25.8580901352
  C        28.3877357405       28.6081488390       27.0046811849
  C        23.4371903095       25.3485742849       29.5872573383
  C        23.7008859869       28.2815820982       17.1038763874
  C        28.5218031243       20.8710259940       21.7880580667
  C        23.4024724169       16.1464812010       29.3322024075
  C        19.3758357602       21.8640572840       19.1277179295
  C        19.7249525433       25.6756880380       20.0665589327
  C        27.3702389094       18.1746333548       24.4004069610
  C        28.8043878665       23.8083692342       27.6177865053
  C        25.5544950032       23.9067124718       17.9414723225
  H        23.4062880592       24.2869118003       29.8617704503
  H        22.5973526981       25.5791098356       28.9206860597
  H        23.3874450286       25.9698002487       30.4884081357
  H        19.5051605763       22.6045103745       29.8626148083
  H        19.7400060026       24.3589337207       30.1337332792
  H        21.0514427345       23.3791444825       29.3916487555
  H        21.5493319693       18.7637852303       29.8836720744
  H        19.7837375836       18.8619761029       30.2256044985
  H        20.6711040242       20.2863821782       29.5842563345
  H        25.8478514752       23.1429937102       29.5714714348
  H        26.3646498580       21.7689254668       28.5439403392
  H        26.1875164420       21.5447368402       30.3179898013
  H        20.0312437075       16.0594872871       23.6708506780
  H        20.2799815733       16.7147847626       25.3189057756
  H        20.6693370876       14.9970276741       24.9748623634
  H        22.0574993882       15.0123607022       19.7384976020
  H        20.3758104286       14.9938550651       20.3601530974
  H        21.7418226764       15.3908020018       21.4618962970
  H        14.6173053084       20.5584419493       25.4063991876
  H        15.1012834540       19.3848465283       26.6722487966
  H        15.9705144645       19.4120977536       25.1066601337
  H        18.3061022944       26.3025192663       22.9908135082
  H        18.4283941012       25.6545064470       24.6575858943
  H        16.8223602146       25.7843899353       23.8616381271
  H        19.2695974958       26.1943114886       19.2155168826
  H        18.9644807750       25.0930139210       20.6007894914
  H        20.5229145168       25.0079680838       19.7198510422
  H        20.4005525857       29.5199872944       24.8175732858
  H        18.9888351009       28.7354225424       25.6004125031
  H        19.9144368381       27.8714458635       24.3227660429
  H        22.9394966031       31.7434212560       27.8409526674
  H        23.2795327250       30.7081621680       29.2653420527
  H        22.2884803249       30.0689119273       27.9085906047
  H        28.9162899427       29.5267081209       20.3829960714
  H        29.4571346667       28.5890277603       21.8215261275
  H        27.8727179173       29.4047565102       21.8378415650
  H        25.6529972237       19.4687839389       18.4348670104
  H        26.4550271423       20.7693191889       19.3784992112
  H        24.6838173329       20.8188811337       19.1184370475
  H        19.2759633243       22.3106973492       18.1321315809
  H        19.2101937403       22.6216069770       19.9005058169
  H        18.6463042248       21.0528546933       19.2400459997
  H        16.4658813498       19.2890818531       21.5370231946
  H        17.6290716167       20.6584831300       21.5450223678
  H        16.4218985171       20.5199055829       22.8502826698
  H        25.2294771868       30.8557873823       21.0629397171
  H        26.1093972611       30.7027561667       22.6195064415
  H        24.9940875965       32.0792818127       22.3582098381
  H        29.3273113594       24.7711130622       27.6674648930
  H        29.3039335532       23.0841553768       28.2709375252
  H        27.7614674588       23.9407150626       27.9236060281
  H        32.3762263505       25.6352507927       21.5726016508
  H        32.2390756034       27.1358051663       22.5441179940
  H        30.9840150808       26.7307183101       21.3227183880
  H        24.5390809368       28.6654714207       16.5115838949
  H        22.7530719337       28.6137117360       16.6648165585
  H        23.7331423944       27.1872132504       17.1457440248
  H        23.4931142720       15.0761520112       29.1128357553
  H        22.3637245132       16.4628332939       29.1954260894
  H        23.7251792644       16.3416040501       30.3612477244
  H        26.8985922610       17.1845561809       24.3902726466
  H        28.4592563443       18.0666602054       24.4540171172
  H        27.0850056362       18.7241543210       23.4976429738
  H        27.8718058306       20.0728988463       21.4092574380
  H        28.4114488086       20.9478374850       22.8760991903
  H        29.5652691220       20.6589970887       21.5294120790
  H        25.3830653848       23.3288388408       17.0265783024
  H        25.9459834001       23.2600714966       18.7335657485
  H        26.2699892074       24.7139187809       17.7436601125
  H        29.4095064886       28.9995015252       27.0675466496
  H        28.3368820980       27.6109735666       27.4505047211
  H        27.6957005881       29.2784197567       27.5288677480
