140
Energy =  -1637.4164544934
 Au        20.0878362199       22.1146670519       21.6361470415
 Au        20.1478722381       25.4576803655       21.7407161898
 Au        21.4830102739       21.6800921983       24.5316937540
 Au        22.6757066130       22.0896171141       20.4133762558
 Au        22.1879253030       23.7178349647       22.6904151358
 Au        21.9574213846       27.4753221476       22.2906327734
 Au        24.9629644253       27.2496276624       21.4217882265
 Au        21.5534333838       25.6590963179       24.6570367489
 Au        24.1576549244       25.5783509778       23.4989362152
 Au        25.6302243596       21.8200512015       26.1369546328
 Au        26.6000312107       22.1216757264       22.1824745050
 Au        19.0002147375       22.1200856438       25.7832635926
 Au        22.7365633699       25.4679295856       20.5200219746
 Au        19.3718869783       27.2952759357       24.0031879497
 Au        25.6914487991       25.2718351216       26.2465501109
 Au        24.0894273157       21.7416520489       23.3776407047
 Au        23.3316859507       19.1112682295       25.1009345844
 Au        19.0015813532       19.6319139092       20.3715187062
 Au        24.8376870344       20.1781035337       21.1978255750
 Au        21.8242423615       20.0034606120       22.0550142922
 Au        23.4021036269       23.6095501354       25.4457602981
 Au        22.5955538068       25.2875054982       27.6900367895
 Au        19.2465677120       20.1647209105       23.7794414689
 Au        26.6552683787       25.1871566564       22.2798275734
 Au        22.4962943795       28.1027334469       19.1449439035
 Au        26.2049002020       27.3654852481       23.9998111566
 Au        20.6541793848       27.4378153735       26.5538968605
 Au        22.3449875809       19.5571334412       18.8747290751
 Au        20.5215563161       19.8169701830       26.3138406347
 Au        22.5113957185       30.2889540924       27.5345595066
 Au        23.4900184974       28.1195832253       25.3864229519
 Au        19.1495265415       28.0507680282       20.6362357030
 Au        26.0724738467       19.8560441981       23.7618547469
 Au        25.8118372794       30.2835390184       25.9449157941
 Au        19.0548700756       25.2269174388       25.8793752472
 Au        22.5342146432       21.8230112003       27.5804956721
 Au        25.5766895864       16.8356025709       25.5166803325
 Au        22.2776252411       16.8452797775       27.1075796345
  S        17.6296735741       19.2597529354       22.2539922335
  S        18.3669988515       23.8229090631       21.5220749532
  S        24.5944270948       18.9174275906       19.1719160488
  S        22.6970067561       17.9697222584       23.0949956870
  S        17.7891860529       28.3507998239       22.5398160546
  S        20.7556224892       28.9790024528       28.3858673547
  S        27.5823760588       29.0274872757       25.0417365498
  S        24.7663877544       28.6435206722       19.4797508138
  S        20.5701373684       18.1605300460       28.0447693782
  S        20.1060130421       20.0678571081       18.3305739159
  S        20.2416056555       27.7054219094       18.5715081838
  S        22.8975587865       29.4074603716       23.4577971430
  S        23.8940333516       15.3635769171       26.2551651135
  S        17.3280729163       23.6839770799       26.4609493229
  S        24.1813776934       31.7634547539       26.7786407001
  S        21.1327024204       23.5551861962       28.4426121745
  S        27.3908723149       18.0847334235       24.6941894514
  S        27.2061397486       23.5371280677       25.6049706192
  S        28.2207628610       23.6544366308       21.3226112300
  S        23.6459461439       23.8085187253       18.9894622312
  S        24.1689828450       20.2067513754       27.0515518546
  S        24.2871154496       26.8748941874       27.2628352393
  C        28.1499183752       18.8079376967       26.2039782229
  C        24.9250564190       32.4536334305       28.3107754154
  C        21.4935973321       30.4735780425       23.9525404090
  C        28.3147741874       28.1834082461       26.5011401058
  C        25.6584810921       27.6845821998       18.1908177516
  C        19.5793636880       18.6901680442       17.2331912771
  C        22.4725322343       23.8742857666       17.5769777529
  C        17.3089692760       23.6286275445       28.2971790520
  C        17.8039657799       30.1510019237       22.8977970716
  C        19.7646219758       29.1662340512       17.5626008263
  C        29.6268808638       23.5902996759       22.5048291913
  C        17.9339732919       23.8871216497       19.7389142129
  C        25.5206793167       19.9238802297       17.9448317818
  C        19.2569369641       30.0284575037       28.2131640661
  C        19.0345617492       17.1784120881       27.8110746669
  C        24.6114119543       14.5489181975       27.7378752609
  C        21.2573724748       16.9220599205       23.5223288557
  C        17.5809586054       17.4410766711       22.4976181805
  C        21.4732176454       23.4926247152       30.2498376058
  C        28.3734323041       23.4708054875       27.0260613153
  H        28.9182458601       19.5183915525       25.8782049461
  H        28.6157303244       17.9944650964       26.7718100488
  H        27.4043908865       19.3218320672       26.8197904565
  H        25.7830428499       33.0684963356       28.0157956113
  H        25.2487932367       31.6617322801       28.9912257551
  H        24.1685574914       33.0794480636       28.7976509264
  H        21.1379866189       30.9829017856       23.0487064558
  H        21.8577555113       31.2131146937       24.6764507723
  H        20.6881544976       29.8789840650       24.3996577859
  H        29.0578491574       27.4686720668       26.1294305911
  H        27.5513045638       27.6577683869       27.0841789593
  H        28.8085464484       28.9421569163       27.1189323805
  H        25.4420848574       28.1374600593       17.2166913046
  H        25.3550100486       26.6328465449       18.1967664118
  H        26.7302573707       27.7613368303       18.4078651767
  H        20.1356825269       18.7816980145       16.2931653599
  H        18.5061517482       18.8051462260       17.0422443587
  H        19.7763289795       17.7155678747       17.6878930977
  H        22.6442831343       22.9921357747       16.9490857064
  H        22.6768444120       24.7873449130       17.0055474817
  H        21.4335679849       23.8823433344       17.9203610810
  H        16.7560364570       22.7322224213       28.6007587771
  H        16.7885301399       24.5244919272       28.6549923492
  H        18.3263180205       23.5980616962       28.7001349785
  H        18.8157764670       30.5633275586       22.8773065779
  H        17.3633060705       30.2945136701       23.8913816955
  H        17.1824208180       30.6479714568       22.1438027403
  H        20.3181555815       29.1138302000       16.6179431066
  H        19.9952971557       30.1031945788       18.0766925933
  H        18.6881939231       29.1011123201       17.3663064781
  H        30.2103074145       22.6887257971       22.2850386265
  H        29.2693288434       23.5637801186       23.5388939102
  H        30.2439797063       24.4815444761       22.3424961701
  H        17.3226399561       23.0064925066       19.5086259548
  H        18.8262958080       23.8914190090       19.1058763248
  H        17.3545100754       24.8017146950       19.5655764133
  H        25.2890705694       19.5413646948       16.9443777152
  H        26.5889093714       19.7956528756       18.1549044077
  H        25.2546583732       20.9832396530       18.0175808179
  H        18.3869499195       29.4041483802       28.4473526502
  H        19.1619298435       30.4310321096       27.2012842127
  H        19.3317111323       30.8485604512       28.9365766538
  H        18.1877952331       17.8178175326       28.0861050067
  H        19.0799316689       16.3125008503       28.4816125765
  H        18.9246325024       16.8436625685       26.7762593228
  H        25.4467340615       13.9238823513       27.4020197951
  H        23.8325360590       13.9205414898       28.1845033990
  H        24.9633081706       15.2827163124       28.4676923536
  H        20.8847489370       16.4850126457       22.5880054243
  H        20.4725407277       17.5131933206       24.0088767635
  H        21.5961322621       16.1249402389       24.1956645026
  H        18.5775099614       16.9953787438       22.4483373072
  H        16.9418412554       17.0150160154       21.7154138728
  H        17.1359207704       17.2507346294       23.4813178901
  H        20.9957512168       22.5909925172       30.6507553470
  H        21.0276260578       24.3838851055       30.7067700767
  H        22.5474084656       23.4672033452       30.4539768691
  H        28.9842138897       22.5666174797       26.9197834259
  H        27.8416179827       23.4498987109       27.9816198355
  H        29.0165182462       24.3573226625       26.9768882715
