312
Energy =  -3836.6308015844
 Au        17.6916112079       16.5357915486       17.8617043187
 Au        17.5483806973       14.8170774285       15.4281091903
 Au        15.4977378837       16.9317509601       15.9607591607
 Au        15.4790075905       14.5216745995       17.7156425324
 Au        19.7362452632       16.8386731485       15.6056560493
 Au        15.6931914659       16.2268375102       20.1695545428
 Au        17.6837249743       18.9538483874       16.0822867495
 Au        17.6801440576       14.1380554298       19.6454981886
 Au        15.6632983842       18.6427118696       18.3972071375
 Au        17.4970572979       17.2285329444       13.6539407553
 Au        13.4448966631       16.6432942814       18.2251062868
 Au        15.3547282095       15.2274565597       13.5042619965
 Au        19.8930941267       18.5512575488       17.9971369876
 Au        19.5857847953       15.0519437238       13.1970501849
 Au        13.2807395199       14.9425346916       15.7458177673
 Au        13.4393610381       19.0265807555       16.5098649470
 Au        15.2556743660       12.8201168361       15.3133947567
 Au        17.9153506211       18.2357545802       20.3098738234
 Au        19.7489615139       14.4303331659       17.4088606321
 Au        19.9314407931       16.1384568759       19.8125525337
 Au        17.6201505998       12.4298338386       17.1645852200
 Au        13.4427531695       14.1820430161       19.9286384581
 Au        19.6429963737       19.3151298097       13.8135702726
 Au        15.4148722110       19.3338572850       14.1794905738
 Au        13.2542310425       17.3336037474       14.0194376138
 Au        19.6665992460       12.6062155805       15.2775153904
 Au        11.2538224145       16.9310825083       16.1899915662
 Au        21.7410010372       14.6552432947       14.9784253686
 Au        15.3591034453       12.0695505828       19.5097030831
 Au        15.5123146836       13.7265377374       21.8564742212
 Au        17.9978379085       15.9616725576       22.0722235691
 Au        15.6652331315       21.0534984510       16.5261863895
 Au        13.7211474383       18.3875651413       20.7127845406
 Au        17.8234671183       20.6399882119       18.6151206435
 Au        17.4984793772       15.4051855959       11.2512166405
 Au        21.9176291782       16.3084517332       17.6026700563
 Au        11.2767364347       14.5242683354       18.1530392265
 Au        21.8540529924       18.9970282461       15.6072037918
 Au        15.7862803102       18.0391904430       22.6218935475
 Au        17.5817755571       19.7240387168       11.9266863754
 Au        11.4842711125       16.1343980028       20.4466644214
 Au        15.1880192685       17.7512966912       11.7961726427
 Au        19.5130752149       17.7383290118       11.4856689429
 Au        13.7006896836       16.1615431668       22.4181293583
 Au        21.6854393133       16.9210366599       13.3275103368
 Au        13.2052652439       12.5345390145       17.1882327741
 Au        17.5272729610       13.0688377011       12.9272528818
 Au        19.8944236001       21.0386257303       16.1151081601
 Au        21.8660250499       14.0748581931       19.3286014822
 Au        11.4930505294       18.8328623523       18.9599313634
 Au        19.6371571406       12.0808025213       19.2394495716
 Au        13.2058264282       19.6779114640       12.3608283427
 Au        11.1682578332       15.3697362029       13.8397321372
 Au        22.1212080959       18.2522685762       19.9182977071
 Au        15.1429830163       13.5129613988       11.1922709092
 Au        13.5886542145       20.7955936513       19.0930246044
 Au        13.3199767235       21.3551682526       14.8271605823
 Au        19.8809707934       13.6511017823       21.5687788630
 Au        13.2459000920       13.2959032948       13.2596904810
 Au        17.7370954879       11.7713165895       21.2935268885
 Au        16.0691287069       20.3606506237       20.7650601905
 Au        13.4110893826       11.8258173863       21.5134794854
 Au        17.2927339476       21.4250346838       14.2929389786
 Au        19.4569119970       13.3769889408       10.9011931436
 Au        13.1474158516       15.5336950870       11.5530198911
 Au        20.1385726460       20.2232059477       20.3319241083
 Au        20.0982725297       17.8443226622       22.1263935613
 Au        11.1996265292       19.5154106387       14.6265338252
 Au        21.9665974980       20.5362281129       18.2061361479
 Au        21.6557722491       21.3135787215       13.9501447767
 Au        11.5240330276       21.1168066041       16.9804692684
 Au        10.6033246296       12.7450223813       15.1994249381
 Au        22.2563935895       11.9874500331       17.1975698072
 Au        21.7375416609       15.2482508287       10.5351456962
 Au        22.0114556576       19.7825230534       11.4144982304
 Au        11.8846679465       20.4322765978       21.3054065557
 Au        14.9865374268       22.0892091671       12.0486602398
 Au        21.7355289232       12.4396586949       12.6123954783
 Au        19.6294437848       22.2710395017       11.9743342690
 Au        11.2835835104       18.2416396786       23.2099155556
 Au        11.2987074924       13.6770974872       22.5192025688
 Au        11.0594524959       11.6610575898       19.6803216256
 Au        18.5350806251       20.1366294814       23.2691966901
 Au        14.0127438701       20.5045954986       23.4824767976
 Au        17.5451894912       12.0328106350        8.9737808618
 Au        24.1924185228       15.6414078370       20.6444143614
 Au        15.1963871098        9.7904275364       22.8691148115
 Au        11.8089613616       18.2709719222        9.9922748363
 Au        23.5926397210       22.6821982205       15.8329694894
 Au        21.3757117186       15.6123771159       23.8899996200
 Au         8.9649391707       17.4275312342       13.1215965216
 Au        10.0611434020       22.4861403666       19.9529195074
  S        23.6516194218       17.8433403642       16.7827373003
  S        17.1089057515       14.2685506230       23.6167592904
  S         9.7410018583       17.3807353257       21.6591317485
  S        16.2008156327       10.5320911256       17.8373702533
  S         9.3281037908       13.9712182515       16.7558520728
  S        15.9721607197       16.5989146847        9.7733025590
  S        16.5515497537       11.1546112223       14.0464069317
  S        23.5069085302       18.3704236676       12.5556764234
  S        13.8355298696       23.4136636677       13.6289985096
  S         9.6358076728       18.2479505860       17.4909546384
  S        14.9292185715       22.6440831519       18.2581735786
  S        23.3322889762       13.7559764224       11.4462091964
  S        16.1012089676       20.8965228384       10.3503792937
  S        15.2191010951       12.1244520962        9.2101709600
  S        18.5657013041       23.4398581517       13.7206879757
  S        23.6332592996       13.5478872638       16.0931315077
  S        23.7382648376       22.1829827522       18.1129875831
  S        21.0226244282       10.3072236477       18.3068439612
  S        20.2513601806       16.6745685380        9.3962232179
  S        12.8412662985        9.8545257892       22.8890125734
  S        17.5312832672        9.8465261974       22.7462342776
  S        12.8714258175       14.5293875884       24.0472257784
  S        23.8027055080       13.3248570633       20.6859026916
  S        20.7036225497       13.3801951663       23.8500476172
  S         9.2011882012       15.2272461603       12.3326731125
  S        20.7580786249       21.3192886213       10.1175693301
  S        17.3396679584       18.5064210902       24.4743043399
  S        11.5211934265       20.4853599871       10.7239601662
  S        23.3205227058       23.0901553603       13.5286128460
  S        19.9009085412       11.9786556970        8.9116504871
  S        19.7434218680       21.8121491238       22.1364699654
  S        12.3968214904       10.4402023766       18.1738261000
  S        21.8426055440       17.9131390508       23.8894546295
  S         8.8159361185       19.5364509988       14.1046279167
  S        12.6624021084       19.1556127073       24.8936841193
  S        11.7312472101       11.4190396427       13.6035939522
  S        18.6807524920       22.6414586025       17.4690473123
  S         9.9033443056       22.7914101706       17.6376068660
  S        12.3256886972       16.0977638694        9.3264199427
  S        24.4956713249       17.9382179464       20.3863121460
  S        20.3070814823       10.8881480433       13.6600204785
  S         9.5791265355       12.6780355757       21.2311073732
  S        10.3518898377       22.1119637139       22.2632427142
  S        15.5557946567       21.9943347818       22.5137580116
  C        24.7124568357       16.9607820843       15.5870177898
  C        16.2547597312       15.1087779846       24.9945304789
  C         8.7212155588       16.1835748994       22.6000198665
  C        17.2269960359        9.2609527030       18.6624632875
  C         8.3033307466       12.7238425131       17.6241736468
  C        16.9101729032       17.7779528961        8.7417510271
  C        15.4514282688       10.2760879033       12.8773088395
  C        24.4386111545       17.4844835956       11.2504218958
  C        12.2449746883       23.8470731766       12.8210196777
  C         8.4987753465       17.1030762565       18.3454637689
  C        13.8196645157       23.9042790800       17.5291935615
  C        23.7657396281       12.6746399122       10.0247648257
  C        17.0757326233       22.1535366654        9.4399061951
  C        14.6792102189       13.2782503698        7.8881189612
  C        17.4470227836       24.6302325291       12.8883767670
  C        24.5601754023       12.5690376202       14.8516216372
  C        25.2597505367       21.1685238389       18.2667923002
  C        22.0777110669        9.8008306898       19.7215137837
  C        21.3073713242       17.8587622577        8.4798589775
  C        12.3344609244        8.5605886988       21.6862225544
  C        18.0631871852       10.4964186511       24.3778065902
  C        11.8873205303       15.4104707273       25.3168727575
  C        25.0716924335       12.6283177964       19.5574644027
  C        22.2117691346       12.3366489659       23.8635076997
  C         7.8759651449       14.2903862744       13.1900487555
  C        22.0155327031       22.5891657048        9.6886722651
  C        16.4737855115       19.4182161483       25.8095585278
  C        12.3808726819       21.4968910103        9.4562019674
  C        22.3490873823       24.6481689516       13.4486277433
  C        20.3326118771       13.1613797744        7.5721492615
  C        21.3736449106       21.8802380358       22.9792866231
  C        11.2152757496        9.6543339792       17.0128691321
  C        21.0748369745       18.5360130997       25.4355983124
  C         8.4694813785       20.7549761372       12.7784583528
  C        11.5993374540       20.4011304636       25.7254425745
  C        10.6620732884       11.4568060581       12.1114318486
  C        19.8598002943       23.5139131092       18.5636258656
  C         8.3056068396       22.0040688585       17.1930371311
  C        10.7528650918       15.2171010564        8.9895986018
  C        24.9232564627       18.6433251287       22.0243783383
  C        21.4290849274        9.6958315901       14.4853003227
  C         9.0534692959       11.2768152806       22.2978912322
  C         8.8462691637       21.1689087949       22.7372153170
  C        14.5594006641       23.3539674824       21.7957161689
  H        25.3075559750       17.7077506091       15.0495800634
  H        24.1111033614       16.3808962961       14.8756680512
  H        25.3634057726       16.2896430816       16.1591443800
  H        15.6594731519       14.3592341451       25.5282680832
  H        15.6024014452       15.9107458675       24.6268763330
  H        17.0256763976       15.5270980343       25.6518810963
  H         8.0824131975       15.6545044397       21.8827271314
  H         8.1032451275       16.7424147444       23.3117980837
  H         9.3478612664       15.4503238955       23.1248106581
  H        17.7864487286        8.7273797133       17.8849443652
  H        16.5518017014        8.5707764669       19.1823612148
  H        17.9254656156        9.7099968986       19.3783656693
  H         7.5720827818       12.3242566234       16.9124034050
  H         7.7870721314       13.2293762006       18.4488935098
  H         8.9222875730       11.9151506221       18.0347413971
  H        17.4526985549       17.2034414962        7.9824747409
  H        17.6186905296       18.3579066259        9.3466109782
  H        16.1856260601       18.4509470111        8.2689566029
  H        16.0861334475        9.7394627703       12.1619812900
  H        14.7919422434       10.9713464037       12.3447394174
  H        14.8496484728        9.5651774088       13.4557943320
  H        25.0876017835       18.2076029345       10.7436471914
  H        23.7634115515       17.0002910294       10.5320839567
  H        25.0459311379       16.7137063364       11.7398840144
  H        12.4399368914       24.5963115786       12.0450652289
  H        11.5898621308       24.2736314681       13.5900824777
  H        11.7706334611       22.9614096359       12.3838880693
  H         7.8179355483       16.6927955664       17.5907170105
  H         7.9409109104       17.6771273209       19.0939457568
  H         9.0487799813       16.2887423930       18.8338273358
  H        14.4443471907       24.6153987083       16.9756562875
  H        13.3014153413       24.4163212483       18.3489067468
  H        13.0875872284       23.4498422175       16.8512868884
  H        24.3173863751       13.2737860918        9.2914272384
  H        22.8657236203       12.2476644794        9.5688956620
  H        24.4069266565       11.8682917377       10.3998359923
  H        17.7131297105       21.6262733758        8.7202282142
  H        17.7127914026       22.7344406582       10.1199810238
  H        16.3779168797       22.8123942224        8.9107629814
  H        14.8628155286       12.7985321583        6.9202482589
  H        15.2104756346       14.2332804484        7.9514280251
  H        13.6055387545       13.4548532540        8.0211953798
  H        18.0585163328       25.4004018768       12.4050631602
  H        16.8157953636       25.0837944532       13.6618433925
  H        16.8023017630       24.1316722374       12.1532844569
  H        25.1170063953       13.2707837291       14.2195015093
  H        23.8812467765       11.9822170296       14.2191122142
  H        25.2554031093       11.9097739083       15.3836324722
  H        26.1202257662       21.8103331577       18.0472173900
  H        25.2355754924       20.3110606687       17.5867128035
  H        25.3139229573       20.8063813917       19.3001216622
  H        22.9144865533        9.2061104979       19.3372455446
  H        21.4622261812        9.1852464077       20.3883920583
  H        22.4510017340       10.6742861524       20.2675555921
  H        21.8229481428       17.3131966393        7.6814360887
  H        22.0324036937       18.3465329038        9.1451471944
  H        20.6519323506       18.6247276049        8.0485089227
  H        11.2780115042        8.7277798091       21.4430549699
  H        12.4585645046        7.5814202786       22.1624914661
  H        12.9241950530        8.6139411142       20.7664773270
  H        19.1462198912       10.6602623056       24.3328998131
  H        17.8273346177        9.7428563326       25.1375119556
  H        17.5663263152       11.4442286997       24.6085248322
  H        12.5862746354       15.9528347622       25.9647990953
  H        11.3381051088       14.6627339746       25.9002407145
  H        11.1944509841       16.1304068283       24.8613306381
  H        24.7902006434       11.5927007677       19.3309695650
  H        26.0365189050       12.6492914416       20.0770506759
  H        25.1284062699       13.1988515436       18.6255915284
  H        21.9016382317       11.3068115253       23.6491280015
  H        22.6445174162       12.3884182691       24.8695056171
  H        22.9447191702       12.6622084569       23.1194557787
  H         6.9208495253       14.5389138747       12.7133680571
  H         7.8450014109       14.5350920559       14.2560400308
  H         8.0873587702       13.2207367977       13.0707270355
  H        22.6710375142       22.1683736380        8.9172556259
  H        22.6087896798       22.8654765256       10.5673464980
  H        21.4938375010       23.4670810719        9.2908405890
  H        15.7549040123       18.7323052078       26.2727449215
  H        15.9415152093       20.2934007766       25.4184767766
  H        17.2242760298       19.7274554939       26.5463251598
  H        11.7473973450       21.5326827581        8.5625281482
  H        13.3606979245       21.0757453912        9.2118912590
  H        12.5128403260       22.5070459839        9.8627397739
  H        21.9521980645       24.7410805960       12.4302577077
  H        23.0230844737       25.4846709288       13.6654100524
  H        21.5150228702       24.6383740890       14.1562477928
  H        20.1652063635       12.6655700207        6.6091864161
  H        21.3936526174       13.4171182839        7.6814698517
  H        19.7370718997       14.0764121290        7.6372563138
  H        22.0469094876       22.4772587649       22.3526576706
  H        21.7911453902       20.8766298057       23.1150706172
  H        21.2406523186       22.3709513473       23.9504000831
  H        11.8005458831        9.2108998496       16.1984523662
  H        10.5182401133       10.3882686705       16.5886766559
  H        10.6698118298        8.8713590355       17.5514473940
  H        21.0239348238       19.6297896970       25.3708495293
  H        21.7129990548       18.2387496765       26.2756430595
  H        20.0648103705       18.1352506689       25.5635314949
  H         7.4275154682       20.6203748100       12.4651439945
  H         9.1403615819       20.6346574632       11.9227133544
  H         8.5976242715       21.7554205986       13.2089310486
  H        10.7934056154       19.8736435970       26.2480684572
  H        11.1838341833       21.1094982714       25.0005083739
  H        12.2206668365       20.9392633545       26.4509798715
  H        11.2429478485       11.0415587139       11.2790948054
  H        10.3565223891       12.4812118232       11.8716370702
  H         9.7817489448       10.8304854806       12.2962782365
  H        20.4129003931       24.2364769944       17.9516459016
  H        20.5581781516       22.8156537946       19.0400119962
  H        19.2786566661       24.0362174888       19.3328313942
  H         8.2326154495       21.9991305282       16.0991789885
  H         7.4966575990       22.6067116322       17.6207385895
  H         8.2544205758       20.9739069025       17.5598403629
  H        10.3432536935       15.6122763733        8.0525816607
  H        10.0293514646       15.3405927204        9.8008645432
  H        10.9905650422       14.1535123332        8.8670921567
  H        24.8811444476       19.7354537235       21.9333272168
  H        25.9473171125       18.3337682446       22.2639054339
  H        24.2341982943       18.3130384221       22.8073013683
  H        21.9206509919        9.0948376975       13.7120502394
  H        20.8117633861        9.0524103124       15.1236157313
  H        22.1735657946       10.2049248781       15.1105700357
  H         8.4268857187       10.6066315368       21.6984251934
  H         8.4666689703       11.6860881236       23.1285074835
  H         9.9217745314       10.7357217409       22.6897825307
  H         8.0122325415       21.8753722303       22.8174696310
  H         9.0352603871       20.7005136144       23.7107505451
  H         8.6152147346       20.3895522733       22.0054831098
  H        15.2245234551       23.9446070251       21.1553487836
  H        14.1815953681       23.9684603219       22.6206354691
  H        13.7280060142       22.9633476224       21.1984115288
