322
Energy =  -4169.0843146873
 Au        23.0473993566       23.2744936334       22.0527759557
 Au        23.9658449425       23.2590744149       24.9347046788
 Au        24.8442907126       21.1885944310       23.0557552205
 Au        22.1403345842       21.2050647511       23.9193651620
 Au        25.7556858761       23.9983339113       22.7605058062
 Au        21.2679611857       24.0255075294       24.2316642789
 Au        23.5241664308       25.7740538727       23.5013537637
 Au        24.0367064761       21.2755943900       20.1224757244
 Au        22.9487593188       21.2629826110       26.8535425792
 Au        24.5862925983       25.7965658924       26.3670954946
 Au        22.4621664953       25.8298018625       20.6359959072
 Au        25.7341097077       21.1908686734       26.0681742280
 Au        21.2506694361       21.2383000119       20.9068341933
 Au        24.7799962745       24.1522848971       19.7974012191
 Au        22.2447888229       24.1473573274       27.1951282949
 Au        26.7514272836       23.9589792675       25.6441422490
 Au        20.2718680611       24.0179615660       21.3481615088
 Au        27.6266408499       21.9312469922       23.7786433099
 Au        19.3688605359       21.9907781207       23.2010327343
 Au        20.2226729626       21.9975464156       26.1215677738
 Au        26.7727751397       21.9672771225       20.8581731976
 Au        21.7602468904       26.5876211066       25.6966536191
 Au        25.2991910018       26.5759882481       21.3107851947
 Au        26.3477346710       26.6061975800       24.1314677155
 Au        20.7124593593       26.6502228566       22.8769840563
 Au        23.9033476020       18.9619551440       25.0237198592
 Au        23.0504984635       18.9770951051       21.9385082451
 Au        22.0756405452       23.3568057111       19.0583131076
 Au        24.9378889172       23.3090147790       27.9297429782
 Au        25.8758154299       19.1761351186       21.2711808357
 Au        21.0809351100       19.1967249688       25.6919936573
 Au        19.4572446867       24.7996007994       26.3745785866
 Au        27.5765325851       24.7595408392       20.6221632160
 Au        26.6422294764       19.1766968602       24.0815112428
 Au        20.3149140681       19.2247034458       22.8814103008
 Au        28.4866943360       24.7682606592       23.3593713978
 Au        18.5481311720       24.8373741329       23.6378151539
 Au        24.0606839953       28.3474903135       24.8292727742
 Au        23.0240798196       28.3630758616       22.1897194362
 Au        26.8481352077       25.5637985274       28.1250030282
 Au        20.1970964401       25.6398313506       18.8772513306
 Au        25.1104851160       20.5245767578       28.7658476495
 Au        21.8655869465       20.5796962202       18.2051354963
 Au        23.3973769510       25.6181139027       17.7794950562
 Au        23.6472097076       25.5797167135       29.2227890145
 Au        24.3340268249       22.3632753675       17.4641375720
 Au        22.6653416812       22.3395537166       29.5184528331
 Au        27.7666663498       22.6225426530       27.9229497479
 Au        19.2376823196       22.7102130012       19.0614015305
 Au        29.4226427760       22.6732304138       21.5785491630
 Au        17.5829641288       22.7442765403       25.4053164910
 Au        28.6110456573       19.9168523167       22.0766863480
 Au        18.3563660748       19.9800023256       24.8907624609
 Au        21.2262568959       29.0715524516       24.4584928330
 Au        25.8685758176       29.0439574071       22.5647848528
 Au        23.9620554410       18.5799709579       19.1636865230
 Au        22.9859718274       18.5610881384       27.7961877831
 Au        26.3224440102       20.3790964250       18.6095460158
 Au        20.6504618113       20.3893266619       28.3604932361
 Au        28.0793077173       27.2985872852       21.9326439837
 Au        18.9905472726       27.3538484190       25.0796024421
 Au        20.0278423521       23.3386256564       28.7828025812
 Au        26.9851124538       23.3218493184       18.2046509960
 Au        28.6391554520       26.1403239522       25.8984831108
 Au        18.4147734384       26.2269354616       21.1074239912
 Au        26.3956585038       28.0697486927       26.5220025139
 Au        20.6851193842       28.1293862817       20.4958959677
 Au        22.0021458008       17.0531540930       23.8142447851
 Au        24.9248307080       17.0344763845       23.1367889887
 Au        28.4060499209       20.3455169961       26.1312118670
 Au        18.5675113367       20.4304277221       20.8388723684
 Au        23.4274026070       28.0489183771       27.6339941477
 Au        23.6530988490       28.0737083266       19.3831965336
 Au        26.0409658276       18.3959143839       26.8302131462
 Au        20.9056015259       18.4525162124       20.1278752045
 Au        29.5575306556       23.0520145661       25.4748248041
 Au        17.4534755027       23.1485655648       21.5124118933
 Au        26.2052855439       26.5014548361       18.6827650507
 Au        20.8535171972       26.5099882663       28.3242136125
 Au        26.8377403450       29.4476451577       19.6419206843
 Au        20.2631289044       29.4698887672       27.3844996355
 Au        31.0085309882       20.7243652110       23.9027150915
 Au        15.9703069594       20.8320637976       23.0696475748
 Au        23.5634884001       31.2159730743       23.5184872654
 Au        27.6785358478       16.8696000113       20.9709013885
 Au        19.2464163952       16.9140288786       25.9796398729
 Au        22.3443337071       15.8906841284       20.1078303962
 Au        24.5666498829       15.8546297524       26.8361408862
 Au        16.7551189797       24.5865222774       27.5884235867
 Au        30.2755994226       24.5181998619       19.4073066227
 Au        30.7806490381       26.5792944235       22.9323346255
 Au        16.2794398823       26.6767132797       24.0759270000
 Au        30.1332501285       24.7495278843       28.1715698079
 Au        16.9004385840       24.8703179527       18.8268946918
  S        25.6203699471       15.7450591327       21.0071440453
  S        21.2889436396       15.7615759539       25.9369725702
 Au        21.1602725241       25.0413489273       31.1326352055
 Au        25.8740852248       25.0542002540       15.8652544660
 Au        24.4361998275       19.4760704966       16.2091170940
 Au        22.5239568894       19.4467758211       30.7558073595
 Au        25.7007869152       28.3314022324       29.5935291942
 Au        21.3822857160       28.4004191377       17.4263158462
  S        24.7320991418       30.2282532634       18.9226934609
  S        22.3797815506       30.2160738175       28.1077539532
  S        30.4666268160       19.1506753555       25.5794035929
  S        16.4900975832       19.2615121114       21.3830657372
 Au        18.7506505502       19.6440269800       17.9274477692
 Au        28.2120366965       19.5427326012       29.0372920298
  S        15.2536123284       22.3524156695       24.7260284396
  S        31.7461739873       22.2448240272       22.2556510536
  S        17.6672733797       23.4387106752       29.4604455092
  S        29.3470474411       23.3956365551       17.5281204744
  S        29.0344332982       28.8560400037       20.2613372073
  S        18.0581551611       28.9144391429       26.7609610561
  S        28.7005177734       25.7582708658       29.7519302864
  S        18.3461570113       25.8708562677       17.2531963766
  S        25.3546295839       15.1088265682       24.7657482538
  S        21.5454525777       15.1438861213       22.1737071466
  S        22.0801785806       19.5334579537       15.9965308636
  S        24.8805235691       19.4705125469       30.9689810731
  S        24.8541156889       26.6805518353       31.0505309567
  S        22.2064924148       26.7477645465       15.9586262249
  S        30.5235851655       27.5159666097       25.1071861673
  S        16.5485546214       27.6225366719       21.9065035045
  S        21.2208334836       31.4020104149       23.7313190476
  S        25.9086747225       31.3691740421       23.3073165751
  S        23.1393138046       16.5795420747       17.9932501727
  S        23.7814266805       16.5428170094       28.9545869614
  S        22.4076710619       23.1771773981       31.8416737093
  S        24.5989091433       23.2127648571       15.1462631073
  S        28.5130997534       21.6416231795       30.0492164450
  S        18.4796375191       21.7532059956       16.9284196442
  S        29.7122698870       18.0737162768       20.8943324491
  S        17.2295524700       18.1457604008       26.0628583248
  S        20.1505762868       19.4473188657       30.5526718713
  S        26.8092861086       19.4423070116       16.4121109096
  S        27.9247848541       17.4006727074       28.1027074825
  S        19.0085425027       17.4922405381       18.8482665964
  S        26.9810495184       29.7606605806       28.1828048377
  S        20.1221341170       29.8385248816       18.8460652322
  S        31.5521542910       23.3966039147       26.8449584743
  S        15.4633982858       23.5281512981       20.1448085949
  S        20.1838914719       27.1309828476       30.5943802122
  S        26.8810362258       27.1261982034       16.4154858321
  S        31.7130172107       25.6402377240       20.9442655623
  S        15.3342606678       25.7386547417       26.0583615810
  C        25.3137526437       20.7359790046       32.2202486552
  C        21.6640528970       20.8102377674       14.7509731092
  C        29.7816153968       29.1732229750       24.8667169439
  C        17.3119187443       29.2686067867       22.1563552488
  C        27.1821426423       15.1110063072       24.9361736775
  C        19.7182573015       15.1735640880       22.0028004182
  C        17.0611447170       21.7194877402       29.2727331457
  C        29.9308648096       21.6674394091       17.7035126381
  C        14.4995273904       21.3260337046       26.0458365736
  C        32.4861246459       21.2164568784       20.9293684581
  C        29.2763817689       27.4955596972       29.8479054487
  C        17.7928676381       27.6161856727       17.1706544127
  C        20.9993211770       32.5132775268       25.1774215097
  C        26.1474715862       32.4861381325       21.8684144729
  C        30.3250136905       21.8186898815       30.2785481261
  C        16.6707104026       21.9577763533       16.6983229119
  C        25.7816656147       22.1835307455       14.1957865726
  C        21.2076520720       22.1591858274       32.7826146833
  C        25.9874080005       31.2386613223       27.7495440543
  C        21.1361161649       31.3003182601       19.2872456690
  C        27.3220526964       17.7124716880       16.7419976419
  C        19.6129317655       17.7269577367       30.2134333500
  C        30.7784714717       17.2561782156       22.1467706048
  C        25.9668771674       14.0022155863       21.4577506296
  C        20.9183243377       14.0261926619       25.4770535050
  C        32.7013919427       24.4667044432       25.9018388754
  C        14.3283601274       24.6074669525       21.0945740522
  C        24.9083957992       30.4430796536       17.1109055548
  C        22.2080203954       30.4226616729       29.9209176781
  C        29.6910577972       30.3061809258       21.1730510574
  C        17.4238579339       30.3810475919       25.8598144636
  C        23.3816485833       27.5675344924       14.8162547303
  C        27.2930658433       16.3843244192       29.4907618885
  C        19.6266720443       16.4765556321       17.4535914933
  C        18.3608657961       26.9781336788       30.6924453933
  C        28.7015407960       26.9483541615       16.3122137505
  C        15.2877588577       19.5958080649       20.0404479177
  C        24.4973857637       15.4352480940       17.5489764799
  C        22.4075311858       15.4151897672       29.3927554240
  C        14.7901943760       27.2132457705       26.9995185949
  C        32.2780699609       27.1126566669       20.0120095040
  C        23.6902885271       27.5081909504       32.1987577214
  H        23.2074355703       26.7217825834       32.7922972751
  H        22.9245690973       28.0785174731       31.6667634745
  H        24.2705185836       28.1705387315       32.8515712619
  C        31.6734697240       19.4589607215       26.9241957349
  H        32.6331030089       19.0159944341       26.6328267094
  H        31.2898936358       18.9639950673       27.8252058866
  H        31.7987575699       20.5317509556       27.1064875912
  C        16.1522346871       17.3498822203       24.8059876684
  H        15.3098173050       18.0258571618       24.6141433237
  H        15.7880662058       16.4022265945       25.2187994509
  H        16.6881400542       17.1747317949       23.8686661283
  H        32.6788284465       21.8771767137       20.0748819706
  H        31.8127078188       20.4064956743       20.6291052750
  H        33.4323123388       20.8031679292       21.2973690946
  H        33.0881872464       23.8770430575       25.0623063153
  H        33.5215510474       24.7539079073       26.5700706603
  H        32.2013613102       25.3624866178       25.5218867908
  H        32.7618582026       26.7619502674       19.0929752208
  H        33.0083597020       27.6458372440       20.6318301830
  H        31.4363502019       27.7703465944       19.7649946230
  H        30.5264781882       29.8206010485       24.3905698957
  H        29.5234160701       29.5642290551       25.8581337376
  H        28.8749591397       29.1131231192       24.2525183310
  H        29.8449662336       31.1284034515       20.4647754065
  H        30.6520885969       30.0124003028       21.6135604805
  H        29.0044986355       30.6157669692       21.9674478756
  H        26.4331385867       31.6871215816       26.8537720226
  H        26.0450778330       31.9436756411       28.5870783056
  H        24.9430324282       30.9772459482       27.5488234398
  H        27.2056738035       32.4463370935       21.5842026055
  H        25.8851934349       33.5033831607       22.1810784816
  H        25.5322568634       32.1793813111       21.0172031724
  H        23.8998049952       30.5056775993       16.6835708406
  H        25.4552310188       29.6037417464       16.6674998874
  H        25.4511231312       31.3777295276       16.9266720812
  H        21.2765646837       33.5284570587       24.8710299930
  H        21.6103310181       32.1920172501       26.0263113196
  H        19.9407909578       32.4874111457       25.4620223225
  H        21.0874482994       32.0109153931       18.4538694943
  H        22.1769825036       31.0235280743       19.4856099276
  H        20.6971620254       31.7495617317       20.1859655659
  H        16.4582511566       30.1055304937       25.4175348758
  H        18.1150060268       30.6856494449       25.0674649787
  H        17.2829664938       31.2004204620       26.5740777622
  H        22.8105221023       28.2422540853       14.1681051044
  H        23.8539224220       26.7788600149       14.2172393900
  H        24.1549268897       28.1236852652       15.3522966144
  H        28.9925452672       27.0456270159       15.2597887204
  H        29.0371344136       25.9822669164       16.7008774028
  H        29.1461246159       27.7591479381       16.9012941365
  H        29.4282301380       21.0722559334       16.9317124219
  H        29.6803857736       21.2670647637       18.6927032311
  H        31.0152914730       21.6511528189       17.5468728498
  H        26.0336986549       22.7202589713       13.2740329759
  H        25.2813587855       21.2357852402       13.9582766848
  H        26.6889167183       21.9773344395       14.7709787509
  H        27.1554347190       17.1154738014       15.8381626932
  H        26.7718359052       17.2899928542       17.5881747870
  H        28.3920680282       17.7306653309       16.9809202473
  H        24.9686479773       15.8207009326       16.6375609185
  H        24.0564153716       14.4520318970       17.3475465959
  H        25.2290527410       15.3605903061       18.3609247723
  H        19.4093314392       14.3139471955       21.3968586225
  H        19.3791797760       16.1025969948       21.5318564955
  H        19.2811701423       15.0996229645       23.0068531515
  H        18.7713658284       16.2424702562       16.8092336035
  H        20.0494874328       15.5554821821       17.8730079314
  H        20.3980677492       17.0026180680       16.8822853022
  H        21.8727093063       20.3943878105       13.7583326059
  H        22.2435600686       21.7270043649       14.9047668690
  H        20.5930756730       21.0265074819       14.8500542635
  H        15.6641745610       19.1013206971       19.1361653723
  H        15.1778105148       20.6714502742       19.8652006330
  H        14.3219103188       19.1646961765       20.3290514300
  H        16.3533301052       21.2846154709       15.8936220444
  H        16.4915403037       23.0013772884       16.4112388290
  H        16.1185878937       21.7335162195       17.6150780391
  H        13.5122835595       24.9099643930       20.4280994111
  H        14.8402477066       25.4939804478       21.4804592171
  H        16.8013994786       27.6367923946       16.7040364031
  H        18.5134160276       28.1627208205       16.5491517191
  H        17.7479394558       28.0712455068       18.1646452825
  H        17.5749338617       29.6620540677       21.1671724168
  H        18.2178532866       29.1932513599       22.7699354123
  H        16.5756201261       29.9228015252       22.6365007466
  H        26.5267346998       13.5291533106       20.6433099278
  H        24.9945968421       13.5082911691       21.5770739595
  H        26.5272007359       13.9180545752       22.3932654162
  H        31.1295200776       16.3058459812       21.7287755475
  H        30.2402239226       17.0833536027       23.0831816988
  H        31.6301406634       17.9194099115       22.3422183610
  H        30.5196075481       22.8577923380       30.5718439207
  H        30.8729112081       21.5920470486       29.3598562353
  H        30.6333937635       21.1360599112       31.0787670436
  H        26.3875184855       20.9383465123       32.1219838637
  H        25.0997018223       20.3184239185       33.2110287057
  H        24.7464589636       21.6610398388       32.0707913217
  H        21.6935288434       21.2028311354       33.0154558763
  H        20.2990279834       21.9698549498       32.2038107520
  H        20.9609809771       22.6937741398       33.7070593154
  H        18.5433750977       17.7619585497       29.9743109434
  H        19.7705058066       17.1228230653       31.1141503036
  H        20.1572258053       17.3009702372       29.3651841779
  H        22.8347887232       14.4249674553       29.5893597786
  H        21.6751557643       15.3548374748       28.5802601980
  H        21.9413775637       15.8025641644       30.3059881743
  H        26.8577509120       15.4718431742       29.0653858670
  H        26.5288980617       16.9170021526       30.0656325609
  H        28.1451508961       16.1344370994       30.1334548602
  H        21.8836381353       13.5186296700       25.3583938734
  H        20.3598822442       13.9548191094       24.5393094831
  H        28.5623775660       28.0467268593       30.4728733251
  H        29.3281180831       27.9574233173       28.8573928634
  H        30.2675966392       27.4998427224       30.3155024932
  H        17.9292749943       27.8005513530       30.1098291260
  H        18.0688166826       27.0699247011       31.7450648700
  H        18.0123782245       26.0206023535       30.2940792799
  H        21.6793954337       31.3641531332       30.1112143728
  H        23.2177741221       30.4676141642       30.3477437919
  H        21.6490997455       29.5888866229       30.3597226692
  H        14.0673698968       27.7603451036       26.3830779896
  H        15.6411155096       27.8575930245       27.2501624981
  H        13.5476478018       20.9282988795       25.6753952411
  H        14.3161487822       21.9838194752       26.9046281198
  H        15.1616364545       20.5048589243       26.3407697850
  H        15.9765544925       21.7161904932       29.4290771176
  H        17.5558059511       21.1124815670       30.0404656582
  H        17.3066631137       21.3228086090       28.2808097016
  H        27.6178873612       15.0376943874       23.9314894489
  H        27.4787687979       14.2428380457       25.5360508041
  H        27.5347520637       16.0317707853       25.4133684512
  H        20.3489671721       13.5574395817       26.2873984048
  H        14.3016876050       26.8639837243       27.9166022860
  H        13.9334850623       24.0176160104       21.9302122780
