380
Energy =  -5206.0319703937
  C        21.9579625511       17.5881927567       15.7486738049
  C        23.1474686152       22.9293634945       12.9871781030
  C        15.0923258926       24.0228961265       17.0543217664
  C        13.8068001081       21.5288431788       22.5006791345
  C        15.7881399260       17.2200399223       23.5720182835
  C        27.9949912553       29.3104234577       30.0411980404
  C        28.9071001557       31.3727405757       25.6919495152
  C        17.8459632056       28.4704207370       15.4555581013
  C        20.1273047237       13.7952749702       25.1845004502
  C        25.4603819534       14.3307998497       29.0445058784
  C        18.0387696038       31.3946188650       18.0765203543
  C        21.6686884818       32.9634607684       18.0940728362
  C        26.0786303776       25.0716312429       33.4515446459
  C        23.6159528384       30.9458326767       15.5462386817
  C        26.3656293239       33.4698063401       20.0589937533
  C        28.6577913955       18.8783591321       32.0712106534
  C        29.0892533174       16.0807395867       29.3076016829
  C        29.0517307574       14.8038828882       22.8267216356
  C        32.7214126608       21.8166512119       27.7707914190
  C        20.0552182792       33.2416643838       24.4834624103
  C        14.0042481251       27.0764984307       21.0415605161
  C        18.3579909535       21.9331126400       14.5985117580
  C        31.4612696154       19.8421044351       19.2719984816
  C        31.3289835638       23.6601116527       17.6431727592
  C        29.1925195262       29.4009117948       16.8241189359
  C        32.0452190317       17.5804555234       24.9248433611
  C        31.2884301957       28.1968374656       27.0252579013
  C        32.2747278713       26.8080514012       20.9701614499
  C        30.5750759196       23.9004937406       31.2806022241
  C        22.1520290762       23.4601956478       34.0915687096
  C        17.3098385173       25.6681029665       30.9435748098
  C        18.0693653280       29.9819328491       28.6776253027
  C        15.0951686631       26.7273796189       27.5817645359
  C        25.6388185909       15.4768840702       18.2249100914
  C        24.3621256450       12.9731863123       23.6846271063
 Au        23.4166671508       23.4980112045       23.5293789415
 Au        22.6061030606       25.4756444157       21.3838814572
 Au        24.2323666312       21.5251195758       25.6688528565
 Au        21.6853304780       22.6737749151       21.3186306346
 Au        20.6730820002       24.4974954882       23.4031888373
 Au        22.8795574845       26.2904912808       24.1997589868
 Au        25.2630405804       25.5689591391       22.6073198041
 Au        24.5228861645       23.3256987616       20.8271207765
 Au        22.4790506304       20.7279158603       23.4466533921
 Au        21.4975235871       22.5691231975       25.5428662248
 Au        23.7264503367       24.3444109541       26.3139686763
 Au        26.0933149427       23.5940498392       24.7030700501
 Au        25.3187002229       21.3543306512       22.9359882169
 Au        19.7068670452       21.7104144470       23.3192906760
 Au        20.9425663607       25.3671604828       26.2429962285
 Au        25.5910218136       26.4500504881       25.3964488720
 Au        27.2290866290       23.4251362394       21.9775018540
 Au        23.5873056944       20.5011919619       20.7006136860
 Au        22.8352822344       22.5326835453       18.5558131179
 Au        26.3745539379       25.4849131773       19.8849442509
 Au        24.3680280881       27.7051166776       20.4389036327
 Au        24.6486970962       28.4496236251       23.2574991259
 Au        20.0511529125       27.2962138262       24.0189041053
 Au        18.9318146782       23.6706108984       21.0923852591
 Au        23.7481839460       25.4506887428       18.6237716553
 Au        20.9386652339       24.7028374881       19.0588727419
 Au        19.8192185725       26.4566565941       21.1177220378
 Au        21.9239531229       28.2993875825       21.9859612447
 Au        24.3364396842       18.5128812657       22.9017879447
 Au        28.0121143990       21.3557981559       24.1074920128
 Au        26.4990680016       24.4046534903       27.5006647618
 Au        21.8809511373       23.3991952830       28.4240147407
 Au        20.5346616746       19.7865124036       25.5356112607
 Au        26.0717969941       19.2603362984       25.1417768156
 Au        23.2475403812       18.7276442503       25.7176128018
 Au        22.3958561602       20.5887593020       27.8208451170
 Au        24.6947919892       22.3247873861       28.4931568819
 Au        26.9659747099       21.4890852748       26.8331654053
 Au        20.7189364201       19.8597594907       21.2127183589
 Au        26.4523614505       21.1591051744       20.1922440224
 Au        27.9818613426       25.6988145170       23.7792842868
 Au        23.1904367438       27.1758019023       27.0175371831
 Au        18.7101035891       23.5539801699       25.4430605891
 Au        20.1029373208       21.7691482160       19.1037066811
 Au        21.4171667686       18.0610361307       23.3831147823
 Au        25.7289455473       23.1978897182       18.2321431042
 Au        27.0758844567       19.1935945007       22.2616174858
 Au        27.0455159619       27.6650699857       21.8357015881
 Au        28.7766767237       23.6592915963       25.7014547340
 Au        22.2164568355       28.9723832920       24.9435288149
 Au        24.1729271278       25.2719585659       28.9842140284
 Au        17.9375888764       25.3281765784       23.2493433954
 Au        19.6363805458       21.7531185597       27.5642194150
 Au        25.1054370237       19.4626447598       27.9507201585
 Au        21.7359923387       27.5738309833       19.1186646890
 Au        17.0436485144       22.5242490285       23.1998700132
 Au        17.7954490425       20.7502218795       25.4453099364
 Au        18.1482654728       26.3841115266       26.0268770903
 Au        19.1040833625       24.5834303126       28.2035414346
 Au        20.3392152488       27.9942057347       26.9838517353
 Au        21.3409161223       26.1776323238       29.0951197525
 Au        24.9618567350       29.3189905710       26.0241596720
 Au        25.9852848567       27.3715840717       28.0020036565
 Au        27.3525265950       28.4838170682       24.6428722556
 Au        28.3356854026       26.4725913309       26.5986120903
 Au        29.0512761638       25.6042405930       21.0305554704
 Au        29.8385312571       23.5116380589       22.9666392909
 Au        28.4114508857       23.2771800281       19.4460251050
 Au        29.1314349122       21.1817546350       21.4239835128
 Au        24.7202701462       20.4138486461       17.9149888533
 Au        25.3150164765       18.4166314789       20.0263113714
 Au        22.0324268051       19.5962296850       18.5676158277
 Au        22.6276152532       17.6443871275       20.7101029949
 Au        17.9695684702       20.9290176868       20.9848250837
 Au        18.6642413182       19.1224613243       23.2276444356
 Au        23.7731761673       23.9695822809       16.2482626133
 Au        26.3861825421       16.7400595469       23.7163081109
 Au        20.8460605888       23.1029703466       16.6149294345
 Au        23.4135573398       16.2422323475       24.4471065494
 Au        18.3673979726       23.9282453252       18.2616235319
 Au        20.8831675955       17.0217208504       26.0499260497
 Au        17.0747828660       25.7063467245       20.4682145091
 Au        20.1806259028       18.9618654354       28.2893786825
 Au        17.8459771231       28.0587338758       22.2960911108
 Au        20.8704374643       21.4556356814       30.2042330374
 Au        20.0056668597       30.0336040562       23.3327847970
 Au        23.4526398387       23.1956734661       30.8580379428
 Au        22.9775278052       30.7647526023       22.8082682295
 Au        26.4059972952       23.8648218224       30.2770056509
 Au        25.6366925550       30.2158333452       21.2871172177
 Au        28.7573231649       22.8744697116       28.4821245005
 Au        26.7240286251       28.1954767793       19.0062839368
 Au        29.7776340838       20.9602566250       26.2789749476
 Au        26.2132803424       25.8729279101       17.0756607268
 Au        28.7221023318       18.5811389287       24.5627043447
 Au        21.6092132314       26.1101993690       16.6441318872
 Au        25.4496294298       16.9046441414       26.6654490479
 Au        19.0321920699       26.9206351781       18.3849248079
 Au        22.8763126007       17.6193857950       28.2981125752
 Au        19.8133088423       29.3373686098       20.3125085196
 Au        23.6647761010       20.2526130715       30.3446861661
 Au        22.9199232432       30.1081666326       19.8282923826
 Au        26.8439590810       20.8422539459       29.7582756921
 Au        24.0797816247       28.0543039216       17.4918441793
 Au        27.8759169524       18.8407437503       27.5049736061
 Au        24.8028073040       15.3959162765       21.4284816907
 Au        22.6359291963       20.8221404293       15.5155746000
 Au        19.1446313256       17.7295791491       19.8754545265
 Au        15.6647568710       22.9728239836       20.1670237700
 Au        17.8507824802       17.6498573719       26.1312049080
 Au        15.9638597182       23.6184326369       26.5632614867
 Au        17.7783570125       29.5175682289       25.4106978125
 Au        20.2501054258       24.2163285874       31.3853049057
 Au        23.0441802397       29.3233612412       29.0603887140
 Au        28.5215403171       26.0525915516       29.7739354947
 Au        26.0480411740       31.5554063970       24.0359754494
 Au        30.6673083011       26.9421236936       23.9478182360
 Au        31.3598726352       20.5870838935       23.6561611091
 Au        29.1900409393       26.1742260454       17.8931463788
 Au        28.2305233460       19.7852040578       18.2581574938
 Au        18.4931215373       25.1753984576       15.5351161670
 Au        22.9211748059       14.6163371042       26.9279615263
 Au        16.5301369215       28.8933439115       19.7264127283
 Au        21.0707941693       18.2776781588       31.0730624463
 Au        21.0133952161       32.4691059308       21.3344948645
 Au        25.4082329537       21.8290247273       32.7261433778
 Au        25.8927460372       30.8658868130       18.0062838149
 Au        30.1841321332       20.4478569208       29.5259660218
 Au        24.1657157000       26.3119775646       14.4485230503
 Au        28.6591265330       15.9318809218       25.9850955527
  S        23.3519929124       14.3131924043       22.9470732848
  S        26.3000911502       16.1947597103       19.7811593263
  S        21.1752455917       19.1463709461       16.3267589615
  S        24.0867305583       22.3445004095       14.4485214111
  S        20.7362628038       16.0859616189       20.4704137782
  S        17.4903888046       19.2833963273       19.2166924572
  S        16.2148240041       22.8286050973       17.8748665253
  S        14.8107352445       23.0617982904       22.3716165323
  S        17.8977067656       18.0940998962       28.4494265474
  S        17.5906547158       17.0213296947       23.8646594797
  S        16.0745144615       21.3229120447       27.1072503350
  S        15.7328769101       25.9165450324       26.0661837397
  S        19.1757409429       30.1285869085       27.2184860755
  S        16.1700067325       29.1221049377       23.7273180536
  S        18.1079849374       24.1104790413       30.3858053058
  S        22.2748751920       24.4817611500       32.5747328648
  S        22.2531328209       27.8132820231       30.6945649277
  S        23.8320524370       30.9249391371       27.5148514339
  S        30.2615171028       24.4691640243       29.5666477777
  S        26.9736951341       27.7911405312       30.1953895532
  S        23.9375550403       32.6144341067       24.1046052449
  S        28.2501725061       30.6949203050       24.1161513098
  S        30.6590276429       27.3699359906       21.6275947158
  S        30.7735346541       26.6012098432       26.2831363444
  S        32.0808129658       22.8399482833       23.6629615528
  S        30.9550418591       18.2601040849       23.6172532452
  S        29.0836891572       28.4754700297       18.4021036434
  S        29.5288858527       23.8934132666       17.3622319863
  S        26.7123714565       20.1762129962       16.4908778235
  S        29.8289705781       19.3444780926       19.9424568487
  S        19.5558949405       23.3210080784       14.5339511746
  S        17.4253898431       27.0367300940       16.5191300945
  S        20.5651805469       14.6789285408       26.7307648868
  S        25.2622948718       14.5145864433       27.2299702548
  S        17.9041680311       30.8121481230       19.8108614346
  S        15.1531066647       26.9806049360       19.6146692086
  S        22.5986568361       16.5740605032       30.5039399940
  S        19.5791941347       19.9925430349       31.7139315755
  S        22.6214427256       32.5486041340       19.6062431885
  S        19.3633648261       32.3865824991       23.0156396972
  S        23.9229748513       19.9915217385       32.7730068388
  S        26.9211703480       23.6415847623       32.6717874633
  S        24.9910017746       29.8523946093       16.0724719114
  S        26.9804148866       31.7504595030       19.9046741264
  S        28.6993551210       20.5670537438       31.3568670315
  S        31.6745123499       20.3115810513       27.7023214850
  S        21.8194666765       26.4585466090       14.2158525162
  S        26.4824795290       25.8947938783       14.6298760044
  S        29.5608398576       17.0770511415       27.8415707052
  S        27.7732834986       14.7554494915       24.1415029382
  C        33.1637634192       22.9418237564       22.1825159393
  H        33.5280412301       23.9734872539       22.1075091274
  H        32.6190232453       22.6707070788       21.2728651106
  H        34.0150455512       22.2663369783       22.3244240284
  C        26.5035315898       18.5859511449       15.6034572804
  H        25.7099326263       18.7335748428       14.8603577491
  H        26.2265205931       17.7797889105       16.2883345808
  H        27.4453966894       18.3434496686       15.0978006439
  C        21.4537623015       28.2205141165       13.8642934432
  H        21.9985423871       28.5225963241       12.9628402632
  H        21.7349955265       28.8575325045       14.7071425419
  H        20.3758972245       28.2988039245       13.6800685634
  C        27.3028656882       27.4437322783       14.0964239196
  H        27.2408020454       27.5008651807       13.0031176839
  H        28.3545089325       27.3793179957       14.4002943827
  H        26.8295885569       28.3264203092       14.5395544414
  C        24.0423032453       34.1022043858       23.0394903488
  H        23.0293305266       34.5165310369       22.9589244027
  H        24.4074416796       33.8570835640       22.0397125330
  H        24.7071552269       34.8292725094       23.5196609996
  C        25.1743550068       31.8542064352       28.3482000824
  H        25.6219697249       32.5168802349       27.5969285554
  H        25.9357580118       31.1800657716       28.7502049423
  H        24.7357844062       32.4509288257       29.1563820731
  C        20.7965832356       28.5968293262       31.4849500045
  H        21.1379529932       29.4630508555       32.0635064059
  H        20.3545680566       27.8511506936       32.1576321865
  H        20.0590227424       28.9096312682       30.7406847659
  C        24.9432529737       18.4876287637       33.0135388850
  H        24.2864694748       17.6231749685       32.8560815270
  H        25.3316182570       18.4852777377       34.0383492217
  H        25.7657701373       18.4554425969       32.2938148939
  C        20.0175435589       20.3459454660       33.4590295251
  H        19.6262264354       21.3400543778       33.7063904775
  H        21.1011696922       20.3126408573       33.6134655745
  H        19.5326124738       19.5917238935       34.0903120918
  C        21.6153268985       15.0307340004       30.3837655531
  H        22.2555683089       14.2588278055       29.9381274904
  H        20.7294637008       15.1656630653       29.7575574498
  H        21.3182574845       14.7351257887       31.3966218448
  C        17.9951291466       16.4377911013       29.2286770962
  H        16.9876554502       16.0053143108       29.2405914360
  H        18.3537767071       16.5781593077       30.2562399232
  H        18.6737302916       15.7778275422       28.6773954266
  C        15.7958310829       30.7825476470       23.0470711567
  H        15.2611949203       30.6393833890       22.0996267805
  H        16.7096588187       31.3595304418       22.8679833458
  H        15.1553681727       31.3072146790       23.7654633298
  C        15.8663320927       18.5506579060       19.6477749706
  H        15.6916470959       17.6846219248       18.9988694504
  H        15.1053289570       19.3177218417       19.4573729180
  H        15.8326128741       18.2459532746       20.6974012744
  C        21.0838318546       15.1083690138       18.9589326585
  H        20.1868054499       14.5324880639       18.7032997038
  H        21.9085301485       14.4254317754       19.1981046395
  H        21.3662507352       15.7536892453       18.1225405239
  C        14.5247028426       20.5577409594       26.4965103973
  H        14.6258475554       19.4734766981       26.6304624893
  H        14.3544338407       20.7880473052       25.4411729031
  H        13.6907819134       20.9307735757       27.1023765305
  H        21.9640265290       17.5855235494       14.6527293250
  H        21.3449192237       16.7538096413       16.1100343047
  H        22.9801934357       17.4929302414       16.1276478723
  H        23.1600411646       22.1321047206       12.2349604179
  H        23.6623964960       23.8187630414       12.6022127126
  H        22.1139921379       23.1838872367       13.2461342654
  H        15.4731316098       24.1909373439       16.0390807874
  H        15.0545522950       24.9757631586       17.5935054108
  H        14.0926751530       23.5751138039       17.0123839868
  H        12.9848343987       21.5866907561       21.7780960153
  H        13.3948554414       21.4857528809       23.5161410569
  H        14.4138290379       20.6393081258       22.3057973657
  H        15.5905934145       16.9618545824       22.5246561969
  H        15.4647303302       18.2463931108       23.7715331516
  H        15.2484612290       16.5243986680       24.2246388283
  H        27.3357376594       30.1718259009       30.2026003330
  H        28.4611090169       29.3767182094       29.0532320829
  H        28.7669823665       29.2941408035       30.8189290778
  H        28.9513856749       32.4648654415       25.6110313681
  H        29.9217459567       30.9781256451       25.8246325072
  H        28.2808131871       31.0853553694       26.5421997952
  H        17.4842113696       28.2745188347       14.4398805901
  H        18.9241687789       28.6525045421       15.4423017354
  H        17.3252724838       29.3435803848       15.8661178456
  H        19.1051637667       14.0901034761       24.9180254417
  H        20.1690910244       12.7176964546       25.3800854339
  H        20.8097339593       14.0590929003       24.3689003815
  H        26.5349534023       14.3339917198       29.2610637895
  H        25.0352767567       13.3652396241       29.3418671892
  H        24.9645574526       15.1438024279       29.5867823725
  H        17.0341212545       31.6186971285       17.7004696304
  H        18.5193743402       30.6452726285       17.4413305870
  H        18.6361591309       32.3138621989       18.0870535797
  H        22.3844437173       33.0736034212       17.2713780402
  H        21.1493716118       33.9147366137       18.2553369081
  H        20.9462890098       32.1776908087       17.8553307467
  H        26.6501996542       25.9705304552       33.1899965919
  H        26.0869090579       24.9265955545       34.5379687957
  H        25.0499462151       25.1770066628       33.0890768588
  H        23.2211099446       30.5496940762       14.6037161367
  H        24.0102571422       31.9541222212       15.3774826162
  H        22.8252168428       30.9710354875       16.3013308641
  H        26.8649523112       34.0793781211       19.2965325029
  H        26.6446038718       33.8298334640       21.0566055791
  H        25.2798768848       33.5226918188       19.9249908331
  H        29.6718971477       18.6052112961       32.3840492751
  H        28.2779108773       18.1490018585       31.3503329346
  H        28.0015094789       18.9119718799       32.9488186757
  H        29.4963562405       15.0698370431       29.1939017406
  H        28.0026758932       16.0387808136       29.4249336251
  H        29.5405962823       16.5594507512       30.1846492904
  H        28.5605354420       14.5442678881       21.8811514540
  H        29.8198073655       14.0598085814       23.0670499885
  H        29.5018126521       15.7993485888       22.7445943648
  H        33.1940007909       21.9334651278       26.7880240438
  H        33.4876856422       21.6667860865       28.5400472191
  H        32.1256345207       22.7072506537       27.9989160327
  H        19.9910963536       34.3227978964       24.3148695307
  H        21.0944615974       32.9457950821       24.6654258862
  H        19.4401477532       32.9599048623       25.3468477304
  H        13.2105904765       27.7914371741       20.7958718311
  H        14.5253042102       27.3884439772       21.9533798242
  H        13.5769200069       26.0769907226       21.1871420539
  H        17.6235269383       22.0762471841       13.7976068474
  H        17.8538197446       21.8856413669       15.5699921524
  H        18.9196664094       21.0061167645       14.4311095581
  H        31.7277107816       19.1560418868       18.4596239079
  H        32.1873431469       19.7503321290       20.0894055113
  H        31.4445656351       20.8714875845       18.9034536582
  H        31.8769350130       24.2812999846       16.9254057662
  H        31.5590111919       22.6040328390       17.4573539309
  H        31.6129823944       23.9308821579       18.6647521799
  H        30.2114470637       29.3016961990       16.4325638097
  H        28.9795656528       30.4523172602       17.0552214647
  H        28.4691849374       29.0389346684       16.0903365347
  H        33.0716462830       17.5721412983       24.5401690031
  H        31.7128580425       16.5558792725       25.1337306588
  H        31.9934333908       18.1767173853       25.8423714782
  H        32.3296410372       28.3919209177       26.7434122459
  H        31.2125117200       28.0861499603       28.1141556707
  H        30.6489537250       29.0178101526       26.6891793340
  H        32.2265676398       26.9008792813       19.8778755892
  H        32.4792668820       25.7700634816       21.2465221039
  H        33.0586761904       27.4646266336       21.3650094431
  H        31.1851178232       22.9904475714       31.2211467300
  H        29.6413003740       23.6808888263       31.8097332631
  H        31.1266238311       24.6902315220       31.8037306016
  H        23.1433559153       23.4541911108       34.5619760008
  H        21.8586033811       22.4333747497       33.8623689757
  H        21.4208311278       23.9217750326       34.7650798735
  H        16.3136992828       25.7107489553       30.4866988097
  H        17.8943134121       26.5447958095       30.6476684532
  H        17.2064612550       25.6370972754       32.0342646450
  H        17.2500286244       30.7017520635       28.5697550697
  H        18.6582839071       30.2334652715       29.5679010428
  H        17.6666377803       28.9685194376       28.7701257417
  H        15.1042197869       27.8088801118       27.3971896279
  H        15.7162723771       26.4934154081       28.4508587668
  H        14.0668273411       26.3881644881       27.7521865712
  H        26.2756719844       15.8235322344       17.4021512249
  H        24.6037202743       15.7877985000       18.0528610397
  H        25.6953724580       14.3844324146       18.2915569335
  H        24.4549700168       12.1706808708       22.9436582375
  H        23.8297357634       12.6068179889       24.5713307544
  H        25.3560477464       13.3317235958       23.9742400221
