393
Energy =  -5341.0716086172
 Au        23.5297731697       23.5012154969       23.4768324767
 Au        21.7505787451       22.6133586304       25.5232902040
 Au        23.2637769165       20.6707752897       23.7525322986
 Au        21.0741467260       22.3980774973       22.5854938766
 Au        24.7102307885       22.3345239274       25.8186462116
 Au        21.1531562146       25.0924645572       23.8944277450
 Au        23.3845509496       25.0539113082       25.8782022969
 Au        23.6805523392       21.9293202933       21.0948667362
 Au        25.9099067127       21.9087747895       23.1178328471
 Au        22.3560155469       24.6884139576       21.1469797075
 Au        25.9890083239       24.6246355125       24.3767826320
 Au        23.7627910138       26.3235501868       23.1384574662
 Au        25.3778462320       24.3921769286       21.4947044422
 Au        21.6064421577       24.2444035968       27.9995265734
 Au        22.9225700071       21.3998089299       27.9298051350
 Au        19.2180348063       21.4576963361       24.6177727626
 Au        21.2465453795       20.7797921061       20.1297520066
 Au        24.3265458968       19.4370483356       26.1764457076
 Au        21.3904851483       19.7179791769       25.8279673406
 Au        20.6790307566       19.5142222151       22.8586189557
 Au        19.2670869498       24.1174928014       25.9401222152
 Au        25.6468641495       19.0150421613       23.4051039093
 Au        19.8452469755       23.5689863824       20.2080147718
 Au        23.4327259532       18.9728656428       21.3969584382
 Au        24.5738782976       23.8888841612       28.2765456286
 Au        18.5815206810       23.9679295641       22.9377467925
 Au        27.2012502694       23.3879608169       26.7789616785
 Au        20.9303022676       26.7278106506       26.2527480120
 Au        26.1770864845       20.3675422315       20.6667654525
 Au        19.8545764276       26.2548282376       21.5715018647
 Au        27.1183494113       20.6378580744       25.4096441819
 Au        22.4884903550       23.1317873802       18.7242913547
 Au        21.4081403584       27.9852865316       23.5823440478
 Au        23.7250447102       27.9298635519       25.5718911670
 Au        25.8974281579       26.1634371946       26.8093383236
 Au        24.1475509211       25.5980194049       19.1037316786
 Au        25.4838450584       22.8180923403       19.0182621793
 Au        22.5740996958       27.6333248996       20.8138307286
 Au        28.4673446534       23.0881408937       23.9776671021
 Au        27.8287015904       22.7940950301       21.0260626548
 Au        27.9225515379       25.6064960431       22.4341707694
 Au        26.2320529157       27.5739007792       24.0894854858
 Au        25.7568556751       27.2549923335       21.1204957914
 Au        19.9714920291       21.6489804443       27.6274780408
 Au        22.8995825631       17.8218918509       24.0459292904
 Au        18.5419315759       21.3057447621       21.5972270777
 Au        18.7209998264       26.6808943776       24.2976583561
 Au        25.8773844660       21.0604651672       28.2097076678
 Au        23.3042162858       26.7347731362       28.3066063220
 Au        23.9146935284       20.2800120258       18.6738655499
 Au        28.3363056512       20.3122366372       22.7235612886
 Au        21.0531841153       25.9618003972       18.8095436571
 Au        24.1237879931       29.1652488154       22.7810801439
 Au        28.4821965687       25.8374306129       25.3171062444
 Au        27.2286869048       25.1976977211       19.4014942966
 Au        22.5721183299       18.6340266723       28.2099102594
 Au        17.5143601966       25.0484429966       20.4704968440
 Au        18.7414089255       24.0691456481       28.6981162015
 Au        21.3105942571       22.4104876677       30.0878704544
 Au        19.2237242657       18.6389618083       20.6223988162
 Au        18.8865679574       21.2444812478       18.7276869759
 Au        17.9481611223       19.0472794515       23.4071347716
 Au        18.6001183232       19.3846344153       26.4633261039
 Au        17.2333384536       22.2837836904       26.6592601666
 Au        21.8598994548       18.2344534727       19.1017367711
 Au        20.4715013418       26.6288733639       29.0541622812
 Au        26.8496508162       18.5505055250       27.2376154589
 Au        27.7978370869       21.3815318714       18.5368356813
 Au        23.1486087384       24.7785538696       30.5391338369
 Au        16.6045428833       21.9726148755       23.6298433772
 Au        26.0841546913       28.9424618116       26.6581865950
 Au        20.0526811042       17.4228812912       24.6950743035
 Au        21.2234186381       16.9459771857       21.8590587933
 Au        24.3348306056       22.0638379006       30.4392778691
 Au        25.2643315187       17.8915988907       19.5933331555
 Au        25.3192292803       16.8382343266       25.2279138783
 Au        25.0497419143       16.4469855583       22.3110568732
 Au        21.4090937587       21.0540011481       17.1698780446
 Au        26.9261753478       23.3828409511       29.7453155722
 Au        18.0433145100       26.3682660512       27.0870421491
 Au        28.7542619439       21.2024429621       27.6987368941
 Au        28.3755433904       25.5001174299       28.1800467794
 Au        21.8754723400       29.0588263205       27.4462110168
 Au        16.6622335402       24.6672866751       24.9667974060
 Au        27.9437164235       17.7523453594       24.5326974020
 Au        27.4944645026       17.8389555797       21.5847055344
 Au        20.1402909065       23.7032019296       17.2773651103
 Au        20.1192575745       28.4923404768       19.8239882270
 Au        19.7780935046       29.5284629655       25.3412137752
 Au        25.7204903571       24.7957659282       16.9400520086
 Au        25.6929425429       26.0384268621       29.7378184664
 Au        30.1054496628       23.5898150420       26.2344592103
 Au        18.9343754320       28.9213179998       22.5431831456
 Au        22.7274245204       24.9146173758       16.5475146913
 Au        30.0754290000       21.0090923145       24.9193931184
 Au        23.0744532912       27.9255530139       17.9753241019
 Au        24.0339262851       22.2380040962       16.5218698805
 Au        22.4060324514       30.4212928607       24.6947279306
 Au        26.1521040275       27.6890699898       18.3791490235
 Au        21.4174782204       30.3223014293       21.9310001001
 Au        24.6791098738       29.5944443625       19.9735384422
 Au        30.4563281326       22.1871554198       22.1173018300
 Au        30.6224314928       24.8249899046       23.4950623330
 Au        29.8448194008       24.8108020780       20.5296130655
 Au        28.9093231341       28.1366222374       23.6304227510
 Au        28.4631951581       27.7051802302       20.4355319071
 Au        26.8970213751       29.6855526923       22.0538944559
 Au        19.1754385876       19.7365330932       29.9301821420
 Au        25.7783573348       18.9814847610       30.5458653103
 Au        15.8228163790       21.4423927257       20.1857623459
 Au        18.2138179846       26.5851688709       17.5949882127
 Au        25.5486363854       19.1033040438       16.3379205688
 Au        24.7229058780       29.3281150088       29.4881784172
 Au        22.9636899186       14.7754178262       23.9500697848
 Au        30.2613902356       27.9779573360       26.6874672755
 Au        29.1133902387       24.7190486749       16.9964527726
 Au        16.7468028780       28.9750130479       25.0785022916
 Au        30.6020219121       18.1816523936       22.9517540875
 Au        20.6835173449       16.0264151040       27.6048896618
 Au        24.0112150247       32.1323850527       22.2034373927
 Au        23.8336478575       15.3078421171       19.4636770738
 Au        14.8021548484       25.6523321168       22.3470519746
 Au        19.2989370941       29.8616428469       28.6494853487
 Au        29.7303489964       17.8650876010       27.3337403339
 Au        19.9963375035       24.5077807521       31.8157553063
 Au        19.1150681074       18.5892004225       17.2425978949
 Au        15.4833632304       19.7015072304       25.5822795176
 Au        21.2839349067       30.9386581942       18.6654732486
 Au        30.2674230572       23.5999827797       29.6310533194
 Au        30.8976194101       21.0154260184       18.9279182430
 Au        27.9768912124       31.0488247894       24.7435677189
 Au        24.9420112424       27.2330688350       15.3130862353
 Au        31.7423088231       27.0573441104       21.4493804273
  S        20.8287511347       20.4417913561       31.4472683934
  S        16.6535818072       21.9188104859       18.0378298241
  S        29.3319762324       27.6438173122       28.8202241777
  S        26.1719994396       17.1446167637       29.1316364562
  S        27.4813464120       23.9903086773       15.4600517225
  S        24.2382612038       14.7745721468       25.9531936642
  S        26.7409664938       17.5588220453       17.6600765888
  S        25.3268211352       20.6481858132       32.1537335653
  S        29.6810469877       16.8323928503       21.2318547902
  S        23.2738478054       30.8419749697       28.3866106774
  S        21.9552216616       15.9603513473       18.2084838666
  S        21.7351932456       14.5697269351       21.9293217282
  S        16.8207704607       30.0435272732       22.9637205545
  S        17.8878694928       28.5802314752       18.8268415083
  S        17.4713361429       18.8511525314       28.5766424232
  S        19.1645885797       28.2402556854       30.3540702233
  S        21.6278051759       16.8857768304       29.5735457558
  S        18.1932032465       24.6755374662       16.1938541309
  S        16.6507341872       28.3296371681       27.3599042620
  S        23.7375259552       32.4668973104       24.5388787488
  S        14.7467556865       21.1206770313       22.2512369043
  S        30.4892718597       19.7140974206       28.5786574593
  S        17.8138716807       24.4501374032       30.9282698110
  S        15.2988283430       25.9421582928       20.0695468479
  S        18.1733962256       17.2223122920       18.9238206186
  S        25.6436602897       14.5774366326       20.7898918569
  S        22.1551769349       24.5761508224       32.7717952479
  S        31.5757404276       19.1055850950       24.9155438591
  S        26.2828175188       28.1334535401       30.8188251294
  S        19.9871949086       19.9486680007       15.5166528194
  S        22.4667585514       30.0171878130       16.8515113471
  S        28.6930154701       23.7890920927       31.3832072831
  S        24.5152282034       20.5733877648       14.8064224210
  S        29.0299675048       16.0542874584       25.9918551426
  S        29.4769774062       20.2124459979       17.2380340846
  S        16.0620238885       17.7847092189       24.3332916257
  S        19.3455130409       31.4311082718       26.8879604696
  S        14.8780025285       21.5932786420       26.8603123072
  S        27.6653917490       30.7105778474       27.0490575481
  S        24.2187999896       31.9860771551       19.8390983739
  S        19.7713605119       15.1767738928       25.6195008394
  S        23.5207503927       25.6246492547       14.3273823378
  S        30.9030648038       25.3641300025       18.3681007146
  S        31.1319811335       28.5258188163       24.5643092845
  S        14.4782330744       25.7077884780       24.6733271103
  S        20.1986805895       31.9426490484       20.5049500810
  S        31.8807376631       23.4323892479       27.9172068044
  S        26.4161757135       28.8320807863       16.2305978798
  S        32.3371209858       21.7756308659       20.6164720751
  S        28.4034578081       31.5841968409       22.4817383564
  S        32.8560229691       25.3181206516       22.5981202287
  S        30.6139960968       28.8681298047       20.4442985403
  C        19.9893102161       20.9394417437       33.0000732346
  C        27.6042108386       25.0286400671       13.9533904400
  C        15.9602242582       20.7125950240       16.8439535278
  C        25.5170227576       13.4844060445       25.6821850454
  C        20.2450341534       28.8275996336       31.7134502465
  C        26.4462740130       15.8952539755       16.9476159506
  C        27.6198552905       16.2537237873       29.8207074273
  C        15.5172316353       29.2804203877       21.9310336061
  C        30.6825910548       27.3674673069       30.0277590152
  C        16.3795321470       17.5973158398       18.9930542104
  C        17.8113414778       29.9467666590       17.6070925272
  C        30.3556994251       17.4445110778       19.6455244301
  C        24.0199711620       19.9312565579       33.2224669116
  C        22.5119437809       16.0699900973       16.4669576995
  C        22.3664170200       31.7024948221       29.7294174868
  C        20.1723697131       13.6940517023       22.3114448412
  C        14.9414451569       27.7627744441       27.6972169414
  C        29.9201063224       21.1690334299       15.7373228498
  C        22.9500237547       15.6851597607       30.0017197051
  C        30.0676025473       19.3706667129       30.3279935009
  C        17.4284920288       17.0598765009       28.9491104511
  C        25.1414386173       12.9432503002       21.4557554144
  C        13.3149082447       22.2598445238       22.1985640422
  C        33.2297837734       19.8051817438       24.5472910367
  C        17.0667331154       22.8541010579       31.4363105870
  C        21.2138837540       29.6056508123       15.5789117709
  C        21.0527282046       18.9180310037       14.4388736730
  C        30.5499986093       15.3504358152       25.2442082424
  C        22.5002754943       33.8163894472       24.6749505861
  C        18.8173696343       25.3132399535       14.5909504489
  C        17.6364183596       32.0779414008       26.7338420230
  C        22.2813105603       26.1576843819       33.6923090136
  C        32.7742742669       25.0325445447       27.8518956243
  C        14.3232315760       24.7032967118       19.1384225759
  C        25.8184899106       32.7207162155       19.3267447754
  C        25.8672015701       21.1510776055       13.7107215276
  C        17.9807796375       14.9136184566       25.9218630219
  C        20.8898176193       33.6375835907       20.6313964925
  C        28.8279005419       22.3013336235       32.4461417212
  C        25.4637517276       28.0503258287       32.4592713323
  C        26.6932981678       32.1782858646       27.5727248594
  C        13.2039368083       24.4681729524       25.1157870033
  C        14.7617376604       17.5407264443       23.0637726333
  C        22.2389725882       26.5375973826       13.3863532372
  C        14.4945239860       21.0003408017       28.5523684296
  C        32.3011879997       24.2728850000       17.9181549140
  C        31.5156070502       30.3168225366       24.6189189042
  C        28.1062349691       28.4178934215       15.6493810862
  C        33.2812843204       20.2668961259       21.0650447008
  C        27.5898280699       33.2242402661       22.3258656179
  C        31.2201013282       29.0094175009       18.7200437130
  C        33.8793964251       26.1347012032       23.8827249217
  H        19.5347247607       20.0494308076       33.4498418273
  H        19.2315485576       21.7085365349       32.8241018665
  H        20.7592807246       21.3442741441       33.6676284817
  H        26.7905454401       24.7223364362       13.2851605214
  H        28.5726176598       24.8407875191       13.4761177662
  H        27.4908747621       26.0919484419       14.1851877081
  H        16.3971266173       20.9519654682       15.8669139435
  H        14.8724318974       20.8393306039       16.8069419328
  H        16.2173688622       19.6828012682       17.1087706580
  H        25.0408646822       12.4997123629       25.7516949259
  H        26.2693946166       13.5940269555       26.4721905180
  H        25.9971839474       13.6045585720       24.7063116245
  H        19.8731987078       29.7964552016       32.0656120391
  H        21.2856961532       28.9190959582       31.3850713750
  H        20.1725859033       28.0914523187       32.5229389369
  H        26.9361732940       15.8478419022       15.9683198064
  H        25.3783457057       15.6776108854       16.8513814412
  H        26.8984930079       15.1658532779       17.6300793476
  H        27.8759465988       15.4560140280       29.1135601985
  H        27.3344037602       15.8225652766       30.7870167225
  H        28.4837643288       16.9149507211       29.9386467811
  H        15.7912384184       29.4217548668       20.8791831768
  H        14.5714980906       29.7884943273       22.1528467868
  H        15.4154485203       28.2082054919       22.1386212934
  H        31.2879482284       28.2791692163       30.0851741149
  H        31.3060262246       26.5095448877       29.7588682235
  H        30.2047443926       27.1758947726       30.9960553378
  H        15.9134705673       17.2930219502       18.0490212283
  H        16.1952463466       18.6611450320       19.1897138463
  H        15.9596601836       17.0043366410       19.8147718363
  H        16.8729715858       29.8552242206       17.0477230589
  H        18.6628687446       29.9285262276       16.9217932825
  H        17.8226389961       30.8869482026       18.1713630934
  H        29.6765270178       17.1328366268       18.8433393474
  H        31.3453428202       16.9957266183       19.5007192691
  H        30.4399404633       18.5386820200       19.6396537610
  H        24.4584066429       19.1123364026       33.8042167732
  H        23.1745757166       19.5689823851       32.6286107581
  H        23.6827269248       20.7257563389       33.8991799620
  H        21.6376268172       16.3433111140       15.8649699834
  H        22.8751384567       15.0841202355       16.1549516955
  H        23.3011823180       16.8217426042       16.3432459103
  H        21.5656584889       32.2851986455       29.2583336408
  H        23.0652361801       32.3706742321       30.2459717729
  H        21.9274458626       30.9967699554       30.4397980553
  H        19.5296131023       13.7754864530       21.4271549918
  H        19.6816415860       14.1393057392       23.1833649770
  H        20.4045738829       12.6413745352       22.5097681519
  H        14.2822237765       28.6385505938       27.6874146314
  H        14.9402202181       27.3064806449       28.6938930102
  H        14.6134083280       27.0383355494       26.9437402376
  H        29.1305479229       21.0069910953       14.9945279749
  H        30.8725087664       20.7782938552       15.3612872970
  H        30.0039831545       22.2407923330       15.9500777521
  H        23.5935886855       16.1552999978       30.7542694935
  H        23.5473491533       15.4174714586       29.1256146827
  H        22.4650943486       14.7957592351       30.4201464641
  H        30.5989761636       18.4657142385       30.6441213419
  H        28.9866984958       19.2432014586       30.4642661228
  H        30.4198232424       20.2249965270       30.9179231290
  H        16.6227396585       16.6217712161       28.3485817302
  H        17.2061688833       16.9332299536       30.0145824659
  H        18.3867383934       16.5782776899       28.7061609883
  H        25.1826331317       12.2124382889       20.6397601056
  H        24.1333575262       12.9774653849       21.8824445424
  H        25.8659575544       12.6681538496       22.2314718862
  H        12.7000740682       22.0076723849       21.3275240749
  H        13.6409024680       23.3099355716       22.1399822949
  H        12.7340114870       22.1009774444       23.1143914507
  H        33.8678389805       19.0240530652       24.1197847417
  H        33.6437400308       20.1413389262       25.5057929900
  H        33.1522857926       20.6562860380       23.8647439686
  H        16.0805221012       22.7958219997       30.9599827385
  H        16.9463126104       22.8465471582       32.5255622726
  H        17.6731032131       21.9998826157       31.1083886295
  H        21.7566131849       29.2613862204       14.6908983730
  H        20.6538558755       30.5143169904       15.3306827860
  H        20.5312046516       28.8230951738       15.9287537844
  H        21.5077792733       19.5911524801       13.7024348990
  H        20.4280324947       18.1742541244       13.9315244452
  H        21.8469738160       18.4279157406       15.0071134270
  H        30.2458453366       14.7301519466       24.3931153459
  H        31.0447405111       14.7300149032       26.0006123350
  H        31.2271970699       16.1389756174       24.8987423978
  H        22.9750212373       34.7604971097       24.3845112680
  H        22.1823330204       33.8637527221       25.7233246116
  H        21.6307996063       33.6198131218       24.0404380372
  H        18.9682720726       24.4523836660       13.9287659915
  H        19.7626680547       25.8468280213       14.7202467810
  H        18.0624919985       25.9821981793       14.1622850003
  H        17.5545872482       32.5702035966       25.7578027801
  H        17.4746257836       32.8080748790       27.5353849261
  H        16.8978016056       31.2715475253       26.7989637780
  H        23.2942369456       26.2113885359       34.1089382761
  H        21.5498670523       26.1476794692       34.5085513193
  H        22.1044132809       27.0189562458       33.0427407239
  H        33.4898935739       24.9662890097       27.0233939091
  H        33.3175806095       25.1777913118       28.7924413168
  H        32.0903872092       25.8709855953       27.6668726184
  H        14.7124911949       24.6840103122       18.1137067347
  H        13.2770951587       25.0298314580       19.1394781183
  H        14.4144358523       23.7012286381       19.5748975689
  H        25.8903422860       32.5877665085       18.2403820316
  H        26.6557906141       32.2106490488       19.8137098550
  H        25.8206411558       33.7885198839       19.5717365380
  H        25.4335173575       21.8852737985       13.0207873382
  H        26.2487218801       20.2933847884       13.1452002086
  H        26.6706975316       21.6214143942       14.2866647196
  H        17.5362619703       14.5734520272       24.9789804296
  H        17.4868972942       15.8384194891       26.2327703109
  H        17.8661598097       14.1390165403       26.6882262778
  H        20.4747401367       34.2387422316       19.8140410677
  H        21.9835298372       33.6315665166       20.5776320136
  H        20.5651360139       34.0523811434       21.5931131074
  H        29.7998904209       22.3167170244       32.9520320805
  H        28.7118962972       21.3808521197       31.8687246723
  H        28.0195086888       22.3611897065       33.1847041439
  H        25.4580265064       29.0542274799       32.8990620613
  H        26.0541838822       27.3742478987       33.0891905853
  H        24.4414175161       27.6720779495       32.3733970028
  H        27.3668601272       33.0428683723       27.5658549625
  H        26.3369108220       31.9842385726       28.5918163861
  H        25.8389655554       32.3550152844       26.9122072591
  H        12.2615441472       24.7439318085       24.6297176827
  H        13.0858192391       24.5009509336       26.2052361272
  H        13.5084722212       23.4594343036       24.8247480751
  H        15.1410266163       16.8082970964       22.3413874489
  H        14.5161349029       18.4805036125       22.5586478433
  H        13.8725347630       17.1379990474       23.5629493100
  H        21.5777263771       25.7921913005       12.9286058398
  H        22.7308895733       27.1226190660       12.6009740275
  H        21.6557590937       27.1979599231       14.0331512327
  H        13.5261047474       20.4874233712       28.5228781487
  H        14.4226142748       21.8820411878       29.2002999928
  H        15.2698317628       20.3204230271       28.9206710694
  H        32.6796524809       24.5924830598       16.9403981289
  H        31.9945949587       23.2196699032       17.8835792316
  H        33.0766498598       24.3985247262       18.6828833803
  H        31.6932352777       30.6429357309       23.5873378400
  H        32.4215634622       30.4530011193       25.2204330282
  H        30.6817036647       30.8881983992       25.0449870209
  H        28.1628813629       28.5809504171       14.5671332222
  H        28.3788649104       27.3846162750       15.8994283830
  H        28.7965879835       29.1014062689       16.1586870028
  H        33.7534796463       19.8776503567       20.1565648673
  H        32.6297236029       19.5002187295       21.5063176634
  H        34.0565838351       20.5585752108       21.7821266108
  H        27.8168434899       33.6127610746       21.3267381878
  H        28.0117243807       33.8937587461       23.0829384971
  H        26.5015683702       33.1483485965       22.4589797863
  H        30.5675773384       29.7196111052       18.1985610227
  H        31.2093681581       28.0379052579       18.2150266788
  H        32.2418668336       29.4056423706       18.7521329382
  H        34.7550923987       26.5753676713       23.3919424565
  H        34.2050323213       25.3584672123       24.5854223144
  H        33.3133578128       26.9100647093       24.4088698085
