646
Energy =  -9593.0985610873
 Au        24.9735067731       23.2476373736       23.9730834167
 Au        27.8773181343       23.2481078689       24.9040701820
 Au        23.4995612134       25.7511993490       23.5000496622
 Au        22.7727497816       24.0215463077       25.7679468703
 Au        23.0504560866       21.2221227608       24.9022493921
 Au        24.2157683905       26.5760982370       26.1990712963
 Au        23.4489269971       24.8488106808       28.4715189696
 Au        23.7456212914       22.0403143944       27.6667811286
 Au        23.9859914659       19.2259806059       26.7969187446
 Au        24.9176870844       19.1729606571       24.0124699235
 Au        25.7851943805       19.1607934805       21.1871865044
 Au        26.1119311192       21.9366123074       20.2862412284
 Au        26.3588272979       24.7435403206       19.3940545125
 Au        25.6780428817       26.5121253737       21.6373273963
 Au        24.9151484192       28.2589613158       23.8961438032
 Au        26.4608156893       25.7563920550       24.4041037992
 Au        25.7235903086       24.0645491738       26.7049044556
 Au        25.9870100445       21.2441606937       25.8836738735
 Au        26.8875042924       21.1927776633       23.0755228937
 Au        27.1801227723       23.9815568933       22.1610479957
 Au        23.9072376926       17.0385641726       22.0607422007
 Au        24.8693955504       17.0768864286       19.2333821175
 Au        25.2119672388       19.9046176283       18.3346885003
 Au        25.3937923543       22.7510172060       17.4210568462
 Au        25.7138890184       25.6027896844       16.5928326703
 Au        25.0330497788       27.3899453051       18.8874356996
 Au        24.1935351360       29.1496384166       21.1609214569
 Au        23.4990904897       30.8735384653       23.4994532777
 Au        28.4101729422       25.4956191839       17.4644698738
 Au        27.8520617268       27.3197935395       19.7664668046
 Au        27.0637386416       29.0158929378       21.9838632212
 Au        26.2280547843       30.8348509140       24.2685469966
 Au        25.6396036123       29.1511607505       26.6681687413
 Au        24.8553141655       27.4382077071       28.8744768894
 Au        24.0045340615       25.6888696987       31.2071776350
 Au        24.4245332535       22.8244598530       30.4603453585
 Au        24.6311028710       20.0696922213       29.5751658691
 Au        24.8113935757       17.1698304871       28.6910799633
 Au        25.8862532700       17.0830116342       25.9024740822
 Au        26.7023987110       17.0930625771       23.1185367919
 Au        27.5358279343       17.0500388595       20.1983291132
 Au        28.0052926285       19.8607445029       19.2938533767
 Au        28.2052709523       22.6218978544       18.4269263993
 Au        26.7229399067       22.0658151641       28.6853874704
 Au        26.8359888668       19.2633611852       27.7811996994
 Au        27.9005154120       19.1234899705       25.0138183769
 Au        28.6385999196       19.1090813595       22.1609093386
 Au        29.1184911700       21.8812632629       21.2142024539
 Au        29.2389739310       24.6749401927       20.2835469615
 Au        28.6932448192       26.5282745754       22.5369908821
 Au        27.8085186689       28.2689836291       24.7440868378
 Au        27.2130176775       26.6420987817       27.1548278685
 Au        26.3236006389       24.9241498191       29.3783163279
 Au        29.3649862708       25.8420306305       25.3236186436
 Au        28.6007980767       24.1018337115       27.7086834057
 Au        28.8700005038       21.1825089901       26.8700596409
 Au        29.8011599584       21.1180989648       23.9667793953
 Au        30.1067566961       23.9981002636       23.0107983954
 Au        30.7547502959       23.2488451614       25.8267624803
 Au        30.7242781515       18.2087156996       24.4743678016
 Au        31.6327977676       20.3004046245       21.6755921429
 Au        31.9176963083       22.9074539818       20.7506543394
 Au        31.5969528875       26.3524751761       21.7824096211
 Au        30.9208271837       28.0782158891       23.8555545463
 Au        29.8288050495       28.1148745145       27.2962823646
 Au        29.1121967256       26.5739846146       29.4978691373
 Au        28.7718257030       23.1525607342       30.5971423013
 Au        28.9911181225       20.4748447298       29.8799752147
 Au        29.8851544082       18.3231617853       27.1234117251
 Au        31.6071988518       20.5490140935       26.1661281759
 Au        32.4037245948       22.3555117172       23.6794313754
 Au        32.1252358419       25.3965903977       24.5465713654
 Au        31.1565284851       25.4699055092       27.5689263127
 Au        30.8363378713       22.4740984882       28.5693709235
 Au        28.6225770052       16.3385345679       25.3394655742
 Au        29.3275432794       16.3543286324       22.3575287337
 Au        30.2221024236       18.1225171693       20.0945627304
 Au        30.6681954417       20.9357506828       18.9587494120
 Au        30.7222569747       23.8456047047       18.0002931931
 Au        30.5915135120       26.7013330579       18.9361271346
 Au        29.9641094676       28.7290761895       21.1495543376
 Au        28.9777984621       30.5115269996       23.4380266245
 Au        28.2148304111       30.5083936316       26.3475724004
 Au        27.4842838486       28.9476953476       28.8850630125
 Au        26.5041147830       27.1394308852       31.1565196206
 Au        26.3759545621       24.2816826360       32.0867725795
 Au        26.6556383461       21.2899772027       31.4740058135
 Au        26.7192415313       18.3899354657       30.4877113116
 Au        27.6155169327       16.6271446369       28.2215872427
 Au        27.3836594530       14.5514812636       18.4694166759
 Au        27.1866012987       17.8512656672       17.3902305428
 Au        27.2600139648       20.5870049791       16.4572995743
 Au        27.4521102283       23.4022158494       15.6336828557
 Au        28.6455916353       26.2455118422       14.5254922347
 Au        27.2861350476       28.1847531086       17.0715114047
 Au        26.3728256703       29.8963455255       19.2156056321
 Au        25.5709859813       31.5674000813       21.4969663012
 Au        25.6397917947       33.7965675680       23.8977070803
 Au        24.3171680099       31.6947381752       26.3320622552
 Au        23.3978506429       30.0166418260       28.4996184026
 Au        22.6196896909       28.2346302296       30.7039996062
 Au        22.5192934364       26.7689685336       33.6328549205
 Au        22.3815949006       23.5311777605       32.3729095783
 Au        22.4432552118       20.7826567130       31.4774333183
 Au        22.6756716390       18.0098622865       30.5305477322
 Au        23.5949442269       14.8759108622       30.2771435746
 Au        24.1538003059       14.9758342569       26.8463637049
 Au        24.8306973786       14.9550869257       24.0353797454
 Au        25.6635172320       15.0234256010       21.2173594676
 Au        32.8084454102       17.2969702390       26.6417771352
 Au        34.5695662386       21.2712684568       21.1552672550
 Au        33.9573312434       27.9781938176       23.0556466808
 Au        31.8206794572       28.1517017302       29.7167898289
 Au        31.1141532446       21.5492865776       31.9319230405
 Au        32.0363759107       30.7683991086       21.9045636078
 Au        33.3512392111       21.6484618110       17.8120531826
 Au        31.1087242038       14.7405197298       24.8065256294
 Au        28.4111680812       19.5897280748       33.2208817928
 Au        28.9824440185       29.4965770700       31.4294460057
 Au        29.7457165651       29.8325537097       18.2856222717
 Au        26.3854131905       31.8187473989       28.7712251860
 Au        24.7697328794       21.9599085943       33.8109623708
 Au        27.1329948702       13.8816997747       26.4418004536
 Au        30.2105039503       18.7465614685       16.8460816093
  S        32.8321234282       26.0835335679       29.2626561862
  S        32.5684727741       21.6170238052       30.0916073504
  S        33.7813915238       19.4058093408       26.3057321587
  S        34.7979599614       22.5094416609       23.1355012542
  S        34.2107545366       26.6337353234       24.9620980350
  S        30.9492194048       30.2459697376       30.3476922753
  S        33.8788739284       29.4505603845       21.2201079050
  S        34.5550372390       20.0867413410       19.1205572654
  S        32.0394600400       15.0935239479       26.9534196448
  S        29.8198935396       21.3694693516       33.8903799665
  S        31.1547934867       29.5575627741       25.8159874534
  S        32.9594705652       25.0723148373       20.1902130941
  S        32.2167616631       18.0677542424       22.5149820868
  S        29.9518225261       18.2230762721       29.5762087061
  S        29.2969970410       25.3239630535       31.6167037750
  S        27.1097325425       28.9063825386       32.7243143578
  S        30.3712556157       32.3017327039       22.5434480158
  S        32.3675485891       23.1838866661       16.3264361026
  S        30.3399002511       14.1566534095       22.6617359331
  S        27.0876921768       17.6925146591       32.7952134855
  S        25.8120602465       23.9915926420       34.4390453401
  S        28.0739695046       32.7140412320       27.3726476007
  S        31.3068703966       28.3530490978       17.2943633928
  S        31.0418394167       16.9382851548       18.1296784764
  S        27.6412289950       14.2438194574       28.7263960932
  S        23.5442264750       19.9653967132       33.5185500786
  S        24.6026004481       31.2910794422       30.2232738699
  S        28.2148453591       31.5024693151       18.9440147992
  S        29.3960701988       20.3040985030       15.2724846070
  S        26.5093951502       13.1748165930       24.2792130030
  S        23.4314849535       13.3218401883       28.5232648553
  S        23.6305955681       16.3675503139       32.0968974360
  S        21.5632176166       24.7476450498       34.3526388695
  S        23.3503457196       28.8679143431       32.9684084813
  S        24.3021930096       34.1010285865       25.8046070359
  S        26.8935155373       33.6014650489       21.9157800928
  S        27.8660271695       28.4551252546       14.6924914023
  S        29.3645401626       24.0265295196       14.2141477620
  S        27.3297393521       15.6116377990       16.3739165568
  S        27.3494194660       13.3753234755       20.5073594977
  C        34.4905006388       26.3912022923       28.5507898226
  C        33.8870498504       22.8392636623       30.4368618065
  C        34.7315522896       19.8531009704       27.8053400762
  C        35.8563832819       21.5658489786       24.2935056151
  C        35.7094391377       25.6035007901       24.7516983481
  C        32.0164037582       30.8229154627       31.7291273423
  C        35.3211591321       30.5709289860       21.4317391613
  C        36.2721112905       20.2057745808       18.4740405327
  C        33.5494723855       14.0446200297       26.9543353908
  C        30.9297614273       20.6028748585       35.1396718150
  C        32.8699215471       29.6099234099       26.4558855218
  C        34.7075128916       25.1703592508       20.7274310895
  C        33.9882655855       18.0781313103       22.9792880117
  C        31.7055895483       18.1327033294       30.0957856643
  C        31.0158091466       25.2580240430       32.2453713231
  C        27.8062256952       27.9531917602       34.1307340049
  C        31.0271161489       33.0812672039       24.0711354322
  C        33.5139866909       24.6181890978       16.3233766731
  C        31.8301955701       14.2661431503       21.5946214371
  C        28.2967847904       16.3247369153       32.5975473037
  C        27.2854308456       23.5760337753       35.4413260688
  C        29.5343439601       33.0691433470       28.4162724149
  C        32.9848249642       28.9856749865       17.6581159932
  C        32.8685112669       16.9765984869       18.0307070125
  C        29.3403907667       13.6336633399       29.0240159873
  C        22.2294715817       20.0891906434       34.7950274876
  C        23.6650452944       32.8669643861       30.3273597055
  C        27.8156336843       32.3518152149       17.3652219471
  C        28.9535827280       19.2535695989       13.8324039493
  C        25.5012370331       11.6740151151       24.6023716999
  C        24.6893293069       12.0255573818       28.8388881443
  C        22.3097826902       15.7920945381       33.2303212767
  C        22.4280616244       24.2667602247       35.8963262275
  C        22.1748141604       30.0993458032       33.6480646356
  C        25.2803940091       35.0998479596       26.9910573992
  C        26.2879873036       34.9378830233       20.8169761028
  C        29.3104207539       29.5532136420       14.4276803592
  C        28.9666334963       23.6208216413       12.4713912230
  C        28.9470115206       15.2913126309       15.5713620849
  C        26.5092637791       11.7871197906       20.1442374669
 Au        22.0259471527       23.2473539163       23.0279198647
 Au        19.1222944904       23.2470958268       22.0968321510
 Au        24.2265746596       24.0207882585       21.2328001074
 Au        23.9491184242       21.2216376749       22.0995169920
 Au        22.7832643151       26.5751857454       20.8007561768
 Au        23.5504479479       24.8470116778       18.5288954910
 Au        23.2540958424       22.0387299504       19.3346647112
 Au        23.0139206422       19.2245897778       20.2056593244
 Au        22.0822273245       19.1724745421       22.9900877752
 Au        21.2146656774       19.1613838839       25.8153723566
 Au        20.8875843923       21.9375224021       26.7152553096
 Au        20.6403565438       24.7446422347       27.6063885594
 Au        21.3209342761       26.5125694870       25.3625210292
 Au        22.0836105169       28.2587341421       23.1031443437
 Au        20.5383682098       25.7557965268       22.5960223512
 Au        21.2759131008       24.0630865051       20.2957664030
 Au        21.0127163707       21.2429028760       21.1180838836
 Au        20.1122163537       21.1925529663       23.9262072133
 Au        19.8192222889       23.9816637059       24.8396854946
 Au        23.0931262221       17.0391532902       24.9427025510
 Au        22.1308566711       17.0785702359       27.7701354019
 Au        21.7878900194       19.9064757230       28.6674945589
 Au        21.6058797268       22.7530851060       29.5799979863
 Au        21.2853309980       25.6049922815       30.4071876118
 Au        21.9656625705       27.3913235139       28.1122121488
 Au        22.8049762595       29.1501468435       25.8381659744
 Au        18.5889413700       25.4967789882       29.5360216225
 Au        19.1467264279       27.3203374048       27.2333019730
 Au        19.9347145818       29.0159500659       25.0152157330
 Au        20.7701922881       30.8342462305       22.7300599839
 Au        21.3588863971       29.1498857524       20.3308462597
 Au        22.1433568207       27.4360195962       18.1250346519
 Au        22.9946775359       25.6857065917       15.7929099562
 Au        22.5753009417       22.8216316109       16.5408178039
 Au        22.3688530608       20.0672107882       17.4271717428
 Au        22.1887406330       17.1673090038       18.3127477473
 Au        21.1138588558       17.0815187344       21.1011487549
 Au        20.2977303342       17.0928053535       23.8849084011
 Au        19.4643140512       17.0508912560       26.8052568719
 Au        18.9944353177       19.8618585111       27.7086215897
 Au        18.7941306375       22.6232888536       28.5744395856
 Au        20.2768453800       22.0632905913       18.3160123179
 Au        20.1639874297       19.2610762058       19.2215328424
 Au        19.0994059206       19.1222196554       21.9888267428
 Au        18.3613811245       19.1090491653       24.8419042180
 Au        17.8811861893       21.8815394321       25.7874017029
 Au        17.7600563326       24.6753874490       26.7170058363
 Au        18.3057379151       26.5279925716       24.4629549992
 Au        19.1902206885       28.2680764344       22.2551752019
 Au        19.7860568885       26.6402146165       19.8450398439
 Au        20.6757734144       24.9215012169       17.6220918437
 Au        17.6342027599       25.8405959891       21.6765255397
 Au        18.3987998402       24.0995208995       19.2919173811
 Au        18.1299098863       21.1803673358       20.1317574312
 Au        17.1987268845       21.1171775606       23.0350144372
 Au        16.8927493640       23.9973813004       23.9898343921
 Au        16.2449349275       23.2471304285       21.1741169578
 Au        16.2756854186       18.2075918816       22.5285850435
 Au        15.3673541491       20.3004360878       25.3264898395
 Au        15.0818324889       22.9078507098       26.2502911951
 Au        15.4020958762       26.3517092008       25.2179896083
 Au        16.0781564837       28.0769070611       23.1442208487
 Au        17.1700572364       28.1125548591       19.7032632675
 Au        17.8868661830       26.5711567693       17.5019668435
 Au        18.2279871621       23.1490500335       16.4036090262
 Au        18.0091328941       20.4715503954       17.1217365501
 Au        17.1144875790       18.3207972222       19.8794385646
 Au        15.3928017366       20.5471168269       20.8358725803
 Au        14.5958814917       22.3544825565       23.3216565983
 Au        14.8740273676       25.3950820138       22.4538098029
 Au        15.8428679241       25.4673439783       19.4311341625
 Au        16.1637761951       22.4711747822       18.4317824784
 Au        18.3773513861       16.3371487311       21.6644676622
 Au        17.6727270249       16.3541653820       24.6462981179
 Au        16.7778228149       18.1231263096       26.9086869870
 Au        16.3313890435       20.9368139149       28.0431987176
 Au        16.2767411967       23.8466886902       29.0006957052
 Au        16.4074101341       26.7018661392       28.0641051230
 Au        17.0345708455       28.7289518990       25.8499928343
 Au        18.0206027977       30.5110423796       23.5605365060
 Au        18.7833542269       30.5068831274       20.6509098936
 Au        19.5143972868       28.9451386987       18.1140507504
 Au        20.4947918943       27.1358538674       15.8428798787
 Au        20.6235653792       24.2777404397       14.9139417422
 Au        20.3445033232       21.2863636293       15.5276215019
 Au        20.2810842311       18.3865963354       16.5155732111
 Au        19.3845723707       16.6245840053       18.7822908578
 Au        19.6165824955       14.5527115977       28.5350411701
 Au        19.8135531369       17.8530825854       29.6129527589
 Au        19.7399676107       20.5891407243       30.5447327424
 Au        19.5475858817       23.4043862500       31.3674143746
 Au        18.3534383732       26.2469530697       32.4751140800
 Au        19.7122035110       28.1862940258       29.9280780753
 Au        20.6251629377       29.8971521287       27.7833625899
 Au        21.4270552004       31.5675808552       25.5017656152
 Au        21.3583809239       33.7959401108       23.1017602614
 Au        22.6808534426       31.6937956499       20.6663919280
 Au        23.6002202890       30.0150992506       18.4991577791
 Au        24.3786686091       28.2320324147       16.2954319471
 Au        24.4795761840       26.7650565088       13.3668295607
 Au        24.6180114255       23.5278065772       14.6277313866
 Au        24.5567135307       20.7795653119       15.5244460654
 Au        24.3241523896       18.0069549496       16.4727380393
 Au        23.4045263831       14.8721253569       16.7280345525
 Au        22.8468283466       14.9743237631       20.1583198813
 Au        22.1701145397       14.9547275041       22.9692655758
 Au        21.3370074356       15.0244359049       25.7869527940
 Au        14.1912392243       17.2950056116       20.3617584856
 Au        12.4305647233       21.2706956809       25.8464227464
 Au        13.0416883896       27.9770023943       23.9448391325
 Au        15.1780290947       28.1486310138       17.2830195389
 Au        15.8859578992       21.5444228600       15.0693704185
 Au        14.9625244100       30.7677481858       25.0945079491
 Au        13.6482454813       21.6493240525       29.1896451659
 Au        15.8907204479       14.7395385096       22.1983047679
 Au        18.5894822866       19.5844127968       13.7817840981
 Au        18.0161038836       29.4927334091       15.5699229591
 Au        17.2521372805       29.8333745152       28.7137355847
 Au        20.6124065008       31.8164164574       18.2272123330
 Au        22.2304529511       21.9554480004       13.1902658993
 Au        19.8675339181       13.8801922737       20.5634460726
 Au        16.7900665925       18.7480746107       30.1566597500
  S        14.1668113543       26.0804203504       17.7376205547
  S        14.4319632519       21.6129147792       16.9099530393
  S        13.2185756556       19.4041062265       20.6966488714
  S        12.2016336569       22.5078639707       23.8656397528
  S        12.7884003567       26.6321332431       22.0385874279
  S        16.0497090599       30.2427854114       16.6518535283
  S        13.1209040383       29.4494105998       25.7803681369
  S        12.4450764718       20.0868178680       27.8814791581
  S        14.9591681341       15.0910214323       20.0515363456
  S        17.1796873710       21.3626932373       13.1106726785
  S        15.8438414646       29.5554350507       21.1832329163
  S        14.0387801832       25.0722682828       26.8101473800
  S        14.7834478795       18.0674002419       24.4881955269
  S        17.0488283839       18.2197707626       17.4266551239
  S        17.7017227694       25.3200572695       15.3838046512
  S        19.8878242165       28.9014466719       14.2741145403
  S        16.6266266948       32.3014818691       24.4539250353
  S        14.6313707957       23.1855258803       30.6748222361
  S        16.6594970475       14.1567676888       24.3434079201
  S        19.9134946965       17.6878166371       14.2084312525
  S        21.1879218935       23.9869545621       12.5619152118
  S        18.9239813084       32.7124173169       19.6253933127
  S        15.6918339195       28.3535202353       29.7058538691
  S        15.9585589497       16.9391595769       28.8740451724
  S        19.3584819322       14.2409836165       18.2788240202
  S        23.4559657769       19.9610391812       13.4837176132
  S        22.3946040884       31.2878834558       16.7748198034
  S        18.7828054128       31.5030565542       28.0542545218
  S        17.6039853728       20.3063857496       31.7297227537
  S        20.4924904698       13.1734571726       22.7257216369
  S        23.5684606645       13.3188751600       18.4826562389
  S        23.3690472980       16.3633541295       14.9079270696
  S        25.4361061536       24.7437820673       12.6474699183
  S        23.6477818386       28.8638795377       14.0307207081
  S        22.6954391822       34.0999403355       21.1944744610
  S        20.1039845381       33.6013934223       25.0832822266
  S        19.1327869703       28.4565508627       32.3072126811
  S        17.6350033277       24.0278931854       32.7871587579
  S        19.6707968477       15.6138149516       30.6300934304
  S        19.6514799667       13.3762913365       26.4972165159
  C        12.5087254743       26.3879004141       18.4502230477
  C        13.1128374404       22.8345635930       16.5647586621
  C        12.2687870948       19.8508380565       19.1966550100
  C        11.1429656761       21.5635474963       22.7084532346
  C        11.2899290882       25.6015372691       22.2486898962
  C        14.9827631249       30.8197975871       15.2702325494
  C        11.6783881224       30.5697388183       25.5702398816
  C        10.7277865709       20.2059157225       28.5273426333
  C        13.4484498654       14.0431559912       20.0526431008
  C        16.0697059093       20.5931500302       11.8632426565
  C        14.1287051089       29.6071280302       20.5433532307
  C        12.2910442072       25.1695241166       26.2716619932
  C        13.0118886831       18.0775210375       24.0241140238
  C        15.2955751951       18.1281640436       16.9055146726
  C        15.9826379464       25.2533527077       14.7559473476
  C        19.1896232968       27.9471331691       12.8693050176
  C        15.9698759844       33.0794322705       22.9257902413
  C        13.4843559591       24.6194342047       30.6775945650
  C        15.1691286907       14.2675457916       25.4102597068
  C        18.7047103274       16.3198774254       14.4067883211
  C        19.7143772872       23.5715567391       11.5598235797
  C        17.4640911371       33.0677019960       18.5811131669
  C        14.0133099722       28.9849273448       29.3426072759
  C        14.1319522617       16.9776464323       28.9743538054
  C        17.6591889771       13.6305956260       17.9823431157
  C        24.7706792179       20.0838858444       12.2070709377
  C        23.3310974968       32.8642241269       16.6686947188
  C        19.1824582214       32.3534177960       29.6323888720
  C        18.0467256928       19.2563949888       33.1701156671
  C        21.5017216692       11.6736051669       22.4013687352
  C        22.3103353347       12.0223437372       18.1691508367
  C        24.6895392257       15.7871692367       13.7745581477
  C        24.5716632741       24.2626979135       11.1035655631
  C        24.8227626547       30.0956464526       13.3507521351
  C        21.7162932408       35.0988344334       20.0088905549
  C        20.7091921215       34.9377322561       26.1823637985
  C        17.6884233487       29.5545909554       32.5722782758
  C        18.0335034012       23.6224118875       34.5298487508
  C        18.0539059357       15.2943373634       31.4337433549
  C        20.4925105287       11.7884823606       26.8599888098
  H        34.9332715158       25.4111208910       28.3330891318
  H        35.0979621482       26.9093635982       29.3013326408
  H        34.4404647065       26.9754116774       27.6269574842
  H        34.5413594775       22.8629607101       29.5563470961
  H        34.4566734817       22.4962242431       31.3078720531
  H        33.4843872337       23.8415709453       30.6115975387
  H        35.1611266235       20.8472173239       27.6287016925
  H        35.5382519417       19.1226647735       27.9338271073
  H        34.0997950842       19.8887790297       28.6980185468
  H        36.8500828130       21.4584919728       23.8442548525
  H        35.4342076240       20.5847801374       24.5313592627
  H        35.9317405462       22.1577924236       25.2143351152
  H        36.5786358038       26.2675234207       24.6856447370
  H        35.6477820002       24.9621831204       23.8672778053
  H        35.7950035657       24.9746118741       25.6467806186
  H        33.0020880612       31.0656995589       31.3155450740
  H        32.1164862952       30.0581670651       32.5040916980
  H        31.5593870317       31.7250053339       32.1524358915
  H        35.2410674582       31.3669780200       20.6822501807
  H        36.2314480828       29.9861627768       21.2557545502
  H        35.3466442451       31.0057451964       22.4345922397
  H        36.2773012633       19.7958978064       17.4572739709
  H        36.9189247218       19.6016055416       19.1206874334
  H        36.6236060128       21.2409834600       18.4593517019
  H        33.2300042347       12.9959425509       26.9477206990
  H        34.1070847654       14.2565750238       27.8739563365
  H        34.1782759084       14.2472659806       26.0831549738
  H        31.6993663533       21.3374895939       35.4035093436
  H        31.3997513408       19.6942300841       34.7538232574
  H        30.3265054977       20.3641139001       36.0233648681
  H        33.5016302506       30.0855291134       25.6955569013
  H        33.2435338792       28.6042929351       26.6656648312
  H        32.8628469176       30.2051475631       27.3768727832
  H        35.2843317736       24.4447270627       20.1408285995
  H        34.8063892548       24.9423201567       21.7918961488
  H        35.0588744296       26.1902253785       20.5300080211
  H        34.5741803121       18.1132620085       22.0529923966
  H        34.1996154596       17.1551704299       23.5332026676
  H        34.2272739454       18.9429350642       23.6036793039
  H        32.0780162947       17.1345920515       29.8357159333
  H        31.7467656188       18.2877869773       31.1809614043
  H        32.3055183170       18.8960974181       29.5935995857
  H        31.3171972793       26.2769916499       32.5178106881
  H        31.6981423248       24.8645341468       31.4874449297
  H        31.0220668113       24.6065442294       33.1274625447
  H        26.9564624457       27.5114448439       34.6661298682
  H        28.3462886292       28.6422201610       34.7896849918
  H        28.4701394109       27.1568032139       33.7771134225
  H        31.8639469102       33.7350734321       23.8012093795
  H        31.3468966749       32.3234010934       24.7946220329
  H        30.2103390930       33.6755963365       24.4995823540
  H        34.4331089949       24.3328189327       15.7995392206
  H        33.7373427487       24.9467171053       17.3442777951
  H        33.0087536123       25.4266752073       15.7802385746
  H        31.4851561757       14.1708315618       20.5574287891