699
Energy =  -10760.9323031022
 Au        33.2363494613       25.4727878405       26.1318425826
 Au        32.1086179025       29.4709040490       21.5607201137
 Au        34.6536682867       28.1376372534       25.4883222491
 Au        29.9641567849       14.9531017603       19.6912058201
 Au        34.1081006306       19.6340132423       23.6912069282
 Au        27.4783669936       23.4350112709       12.8329314707
 Au        18.1159738565       33.2858725580       28.1505109375
 Au        28.5865234539       30.7283693506       18.0082936915
 Au        24.9490445862       21.2309645199       23.2414599770
 Au        26.3100037708       23.2629936549       24.9387409505
 Au        28.2405178447       25.1404884359       23.6454730305
 Au        23.7694664902       21.6147522694       29.0745126743
 Au        23.3895766503       27.9183633230       26.9901878554
 Au        26.9461228821       23.0848671647       21.9991346251
 Au        22.3623130893       19.5436306321       27.3877420421
 Au        27.2467972424       21.1604110789       26.7372705203
 Au        22.0351777164       21.4910505547       22.7041799039
 Au        20.9975795255       23.5612355248       20.8358730331
 Au        27.6547617560       25.3317877776       26.6009250122
 Au        19.9545435233       24.0644605363       26.7299209220
 Au        25.4982983465       21.0830120726       20.3210866501
 Au        24.3458525944       25.7645185156       28.8212377544
 Au        23.8702731791       27.7449580278       24.0475757784
 Au        26.2421794550       27.6850982300       27.6402070462
 Au        20.8607257766       21.9012240403       28.4332996928
 Au        22.8705108790       23.7332025216       27.2201091115
 Au        21.4762132163       21.6865376327       25.6024349763
 Au        19.4764886311       19.7900584400       26.9147538910
 Au        25.8519077570       19.1082219095       25.1038859467
 Au        25.2636992064       23.5844118377       30.7841425416
 Au        23.0086250035       25.3525546666       19.5464171376
 Au        20.9856783476       27.9492279756       23.5546390544
 Au        26.6696583614       27.4420286337       24.7352998549
 Au        22.5786443382       21.3739805638       19.7784807122
 Au        21.9436837970       25.8784932065       25.3786499720
 Au        27.2391248993       25.5187033202       29.4930726627
 Au        20.1442519518       19.6244956475       24.0493461482
 Au        25.9165764196       25.0663129351       20.1509898147
 Au        23.5202413610       19.1896534475       21.5941819595
 Au        22.3288551096       23.9345865443       30.0695592036
 Au        21.0351035190       17.4293919154       25.8582739833
 Au        21.5845756758       27.6564326826       20.5681679460
 Au        24.4346021798       27.4514190698       21.1830945531
 Au        24.5392125293       23.1115575775       18.4291193468
 Au        28.6563925270       23.1936363888       28.4912901822
 Au        18.6011671206       21.9426507383       25.1217310777
 Au        26.6958447330       21.2816440904       29.6679898641
 Au        22.4197700536       30.1021422023       25.1362875345
 Au        27.2575627292       27.1688544186       21.8110567065
 Au        21.7088887962       19.7090971890       30.2358280737
 Au        18.4801690650       26.3951616196       27.7460084471
 Au        23.1061869410       21.6848464044       31.9847065590
 Au        21.5917164740       23.4270045800       17.8563604025
 Au        17.0354127043       24.2916003663       26.2064390271
 Au        27.4834979908       22.7976034847       19.0204172922
 Au        23.8846787109       17.1534648408       26.3307743950
 Au        23.2047874987       17.4117996831       29.2651797537
 Au        25.2372904047       29.8384425605       25.7776178059
 Au        21.6506628572       17.2149639222       22.8780931888
 Au        28.8117160478       18.7824144328       25.6873988661
 Au        22.8868459016       29.8143039041       22.2072938629
 Au        25.3524929724       25.3617244633       23.0602273386
 Au        20.0621016666       25.6455232597       18.9315087979
 Au        29.5433605669       27.2317629058       25.4219799079
 Au        19.3459017388       24.3035755490       29.6100540776
 Au        17.9291577526       22.1620159661       27.9630365585
 Au        20.0305480633       28.4399745406       29.4466136435
 Au        23.7446409162       25.8816022881       31.6946608580
 Au        20.9645254174       26.4037669502       31.2444644296
 Au        26.3917319552       18.9770924792       22.0954095446
 Au        24.5789116149       19.4467959574       30.9473018696
 Au        20.2873693735       17.5501964807       28.7709803509
 Au        28.9286812427       24.8700521579       20.7317023488
 Au        19.5518151251       30.2487503534       24.6202369920
 Au        25.7571077757       29.6297136031       22.7785662315
 Au        24.9521166279       27.0871011432       18.2120206944
 Au        28.4575883673       20.7853821372       20.8703484784
 Au        29.1715743672       27.5252092620       28.3562039588
 Au        30.0898944994       20.9360711215       27.3245282043
 Au        18.1205304970       23.8567828957       20.3143008621
 Au        17.6523672905       19.6062267978       20.6592392929
 Au        25.7506945371       27.7446165931       30.5569385962
 Au        28.1799157759       23.4539594261       31.3213927194
 Au        21.9757830930       30.2634973901       28.1227446537
 Au        21.7832424524       24.1382284127       32.9428687692
 Au        18.6781927044       27.9502731728       20.0656970636
 Au        16.2070908540       21.8694364751       21.6787724432
 Au        30.5503570807       25.1690651276       27.2079836260
 Au        23.4190308930       23.5287870154       24.3281137137
 Au        20.0453134966       30.0052769541       21.6468424510
 Au        16.4935550931       19.9707825553       26.4831696880
 Au        26.7388371769       17.0127391396       26.9208108247
 Au        30.0189904841       25.3083011304       30.0925034243
 Au        17.6135317081       28.4626433094       25.9018495078
 Au        16.1844943783       26.3316429406       24.3015727252
 Au        28.5661189940       29.2322793757       23.3821509358
 Au        27.8680844757       26.9256633082       18.9815319785
 Au        24.1315583930       19.1335864695       18.6191419823
 Au        27.3700835044       16.8366706517       23.9694418969
 Au        26.9701421971       18.7933861856       19.1509826436
 Au        25.9658621439       21.3591315913       32.6881021308
 Au        12.4214230278       18.8298576370       21.9260932048
 Au        23.0156449468       21.1394792462       16.8351499718
 Au        26.3533386562       29.2328183850       19.7474897329
 Au        19.9683309741       19.6330624315       32.4832309403
 Au        26.0942062489       17.1828031597       29.8277004185
 Au        29.2725863225       18.6928436394       22.7333221608
 Au        27.6796634311       29.8012898898       29.3274516899
 Au        15.1286166410       22.3797625857       27.4710280228
 Au        26.1045738255       20.8423353949       17.1953010266
 Au        24.5337798999       23.8125402988       33.5786454814
 Au        23.5916612913       25.1503697605       16.4124512796
 Au        17.4684003924       17.8874197194       28.2326538099
 Au        19.0872213226       30.4921789662       27.5565770699
 Au        23.5434161964       29.4985770875       19.2159069974
 Au        22.4506732459       25.6172181420       22.4568563613
 Au        16.0210899775       20.0225034495       29.3682349276
 Au        27.4579024544       19.1692284881       31.4232471137
 Au        29.1783367717       28.9907728926       20.5513749690
 Au        16.4392425819       24.4312456465       29.0222057037
 Au        32.0232282450       22.8570154876       26.1131437015
 Au        16.5861289745       21.6314171293       18.7782410968
 Au        24.9062685508       31.6352159413       20.6992716785
 Au        21.9986565386       31.7387756927       20.3024910057
 Au        20.6895981509       25.4178891700       16.0251065427
 Au        24.3164086439       31.9331087173       23.9730712223
 Au        20.6506581643       29.7333977435       18.7155665912
 Au        23.1495493945       14.9688157641       21.5452267018
 Au        30.3353921879       22.5346647701       19.5589123588
 Au        25.1101872414       22.8989167300       15.4262576790
 Au        18.7477768855       23.6866849920       17.2756732026
 Au        28.9399715020       20.5999371609       17.9344743203
 Au        17.5571426439       22.5061767995       31.0485698168
 Au        17.1842460570       28.7058052314       28.7978906935
 Au        27.8827148211       16.6917342618       21.0126517683
 Au        15.5675066141       26.9480779962       27.0909364797
 Au        18.7723302966       15.6156411598       27.1907781052
 Au        19.6283069700       15.4013067875       23.9386305139
 Au        18.0553538549       26.7481808928       30.8056723003
 Au        20.2219615350       15.3603384815       21.1707204736
 Au        27.2979999141       31.6225125925       24.2462039142
 Au        24.8869045021       15.1776567756       28.3324326059
 Au        23.9711780906       23.3230521975       21.4216700792
 Au        20.0727124396       21.1488141848       16.3474014053
 Au        27.8909879712       22.7285319893       15.8550049961
 Au        31.4576279774       20.3856077491       21.7833127587
 Au        26.9052094802       31.8758509395       27.5828925441
 Au        25.7550747772       14.8810897493       25.1799431179
 Au        28.7349055525       16.2772284334       28.8864434512
 Au        25.9974729043       14.8863432739       22.2546369344
 Au        32.5714089049       22.6506475749       23.2825555566
 Au        25.7273378118       30.4895610240       31.4018493496
 Au        22.9396967393       30.9064750451       30.7987921797
 Au        24.1714082128       16.8354303556       31.9476915865
 Au        31.3302481119       17.8539242503       24.7246003209
 Au        16.9483640545       26.0875224636       18.6236297331
 Au        31.6102363870       22.9679344888       28.8580523293
 Au        29.3856446218       16.0049091279       25.9821262368
 Au        15.5177515888       29.2172015492       23.9411348224
 Au        16.0588124399       28.9989125704       21.0360944458
 Au        16.9964370376       31.1926808651       25.6032313164
 Au        29.5073471739       24.8876947322       17.8746860648
 Au        30.7676950772       18.0465155836       27.6272133161
 Au        18.5109049515       17.5367871983       30.9492412602
 Au        23.9516399231       19.6984916850       33.7568393331
 Au        18.1003882901       30.7718020096       19.7622503284
 Au        17.4568463938       31.0508783383       22.6532868064
 Au        14.1967777676       27.0731880531       22.3306470191
 Au        32.6401637691       19.9853451009       26.3347765787
 Au        24.8100988025       25.5765345238       25.9600031326
 Au        32.9626695253       26.8688691856       23.0538224880
 Au        24.7775653472       20.0445477806       14.8489274589
 Au        20.1122854517       31.1714457797       30.1648410477
 Au        31.8097577190       27.7992614895       27.1398631007
 Au        23.7582627445       28.5837386467       32.5690341699
 Au        29.8485218677       15.8720084044       23.0470634558
 Au        22.5068307423       16.9261744303       34.5445150787
 Au        13.2169301586       19.5371634476       28.5619001680
 Au        24.1267990498       27.8858353080       15.5490122907
 Au        15.1513829105       17.4277440598       30.8947203153
 Au        25.7037114098       25.6559392198       14.6275223994
 Au        28.8797926636       30.6781035698       32.5544884168
 Au        22.5994909675       30.1159522731       16.6252149443
 Au        21.9271780578       21.7406860567       34.9618178735
 Au        31.4744907723       28.3190493193       31.4018140343
 Au        19.2315318446       13.8811459509       29.5430096111
 Au        22.1971560975       25.2165006767       12.7710833769
 Au        15.9249701842       14.6939732394       28.1174750995
 Au        25.6652411870       33.9037380878       29.3440425034
 Au        26.7085652495       14.5189829428       31.1051325512
 Au        28.4783072083       13.3239064300       23.9952306583
 Au        16.1888779629       17.0426848319       19.4183556373
 Au        16.1439097308       17.2500900720       23.2121621237
 Au        20.7307389419       15.4054230734       17.6009473489
 Au        11.8020009546       24.6367170957       23.0047254633
 Au        14.5794330589       30.1507975129       27.1325881952
 Au        24.3484468608       21.3823589266       26.1532258757
 Au        14.9171485761       19.8006696576       20.1274092646
 Au        25.5060566483       31.2183189594       17.9748759939
 Au        28.7272733170       20.3162813177       14.3601851645
 Au        30.2278121767       27.0643786486       22.5196250334
 Au        31.1417222524       24.9998176324       24.2951594747
 Au        31.8524221139       24.8303829719       21.4515916396
 Au        20.5124975669       23.8001346230       23.7996575172
 Au        25.2941673522       14.7904024938       16.0260770869
 Au        30.7606848765       29.7824812032       25.0994108198
 Au        25.7546507652       23.4138401914       27.8773653073
 Au        27.0384647822       27.6714062231       16.3694158704
 Au        20.7167513902       31.4806072482       33.1751922226
 Au        17.6522958903       23.9671474750       23.2823420186
 Au        22.9925226159       19.3030572264       24.4785423963
 Au        27.7976565702       20.9532135331       23.8255985250
 Au        19.5935743329       25.8984197865       21.9176224260
 Au        24.9303049638       31.0055499317       14.8089360534
 Au        25.1803597763       19.2915292557       28.0005912150
 Au        19.0390670879       26.1026457116       24.8290355038
 Au        20.5496098999       28.1789773420       26.4928763515
 Au        21.4118960135       26.0598523325       28.3123439551
 Au        29.1565665935       23.1014239734       25.5283181047
 Au        19.1398920399       21.7157025610       22.1594837680
 Au        24.5256269022       17.0288803161       23.4229137541
 Au        22.9548758273       28.1583777624       29.8741396173
 Au        20.6713297422       19.4823643625       21.1042693844
 Au        20.3671546608       22.1911825518       31.3153748954
 Au        24.8682674279       30.1348538247       28.7490416775
 Au        18.0270206446       28.2747668256       22.9679821740
 Au        28.1214210111       19.0057534707       28.5660977104
 Au        18.8680650395       20.1403084708       29.7891502033
 Au        29.8061807674       22.7953325321       22.6091691630
 Au        19.5694530359       21.5700437038       19.1873929049
 Au        18.2282142671       17.6813688911       25.2580027180
 Au        15.6890312749       22.1115098493       24.6006475682
 Au        16.6857785319       26.1241570851       21.4212490389
 Au        26.5903288839       24.8874041052       17.2489265277
 Au        28.0625701998       29.5810850971       26.2826870719
 Au        17.2248175558       19.8523236980       23.6041594720
 Au        18.8267166276       17.6183938971       22.3546728608
 Au        30.6794277439       20.7370863049       24.4604386480
 Au        22.1252770613       27.4228988242       17.6194472788
 Au        21.1418333113       19.3229116374       18.2420575218
 Au        22.2121819933       17.1810247344       19.8142088628
 Au        21.8858937942       15.3619568195       27.6283631225
 Au        18.9995520200       24.4760718283       32.4815931649
 Au        26.4489934305       25.6070013060       32.5170982465
 Au        14.7769981065       24.2146184134       22.7408389967
 Au        29.6302467218       20.7208403052       30.2026073222
 Au        23.8538139088       32.1050463355       26.8165811155
 Au        22.4953052482       15.1327316919       24.8166423133
 Au        25.0145215575       16.9174279007       20.3848150973
 Au        28.5570610909       27.8772469891       31.1917782427
 Au        19.2963987211       17.4572097318       19.4909088741
 Au        27.7572269741       31.2717992138       21.4750776033
 Au        15.3042042984       24.0208568939       19.9051587544
 Au        21.3151042850       17.1123432886       31.4665565954
 Au        21.1548046748       32.1493866014       23.0844962402
 Au        14.1589427335       24.4875338331       25.4357100802
 Au        22.3701196554       23.0537687656       14.7824502599
 Au        30.7171775284       26.8210616139       19.5512371926
 Au        18.2851785245       19.4309735203       17.7138465576
 Au        22.8472872545       18.2518144092       16.2392559827
 Au        15.5065787775       17.3642893381       26.1193947445
 Au        30.2899361535       30.0828791625       28.0253041060
 Au        29.7983279724       18.3253532995       19.8387679393
 Au        13.5750286054       21.5942494015       22.6695186329
 Au        30.4515624650       17.5784763641       31.0372914411
 Au        26.8234406021       15.9790758094       18.4275651263
 Au        20.8096002957       32.3049038870       26.3464507727
 Au        19.2545949509       27.9057893091       17.1571179854
 Au        25.8513986460       18.0021496781       16.5762969198
 Au        14.4744690756       19.4652801145       24.4370919745
 Au        19.0952129554       33.4592343103       20.7908010589
 Au        23.8380042654       21.9527056562       12.2460735174
 Au        34.6820262214       22.5518307538       27.5057023600
 Au        29.2414346740       32.9918609379       29.3455087525
 Au        19.2426827950       31.2248400964       16.5039992866
 Au        23.5956826381       14.9950340021       18.7600210317
 Au        13.8038335144       27.0269827471       19.3121651079
 Au        20.9759970915       26.7836296374       34.4238707528
 Au        19.5830064015       28.5914610545       32.2976166812
  S        20.7266588027       15.8167651477       33.4807246558
  S        28.6148857895       32.5400164484       19.5574953144
  S        23.8847817076       22.8544181558       35.7426868300
  S        24.2373448272       18.1383253024       35.5890952861
  S        12.3688798803       18.2048396526       24.1930069145
  S        32.2453832761       17.5111872199       29.5065180778
  S        31.4689255869       14.8878307697       21.5089431558
  S        29.9273261120       19.2987075125       16.1088022265
  S        28.2399753270       22.0255643366       33.3114521222
  S        23.0557690399       27.8939191132       34.7848341040
  S        13.4702382766       29.9661251443       25.0586907332
  S        16.3781594557       17.9650220329       17.2282242070
  S        32.6787831999       23.2029122188       19.8166759347
  S        26.7583769516       30.8663489741       33.5644624701
  S        22.7897313244       32.4808947085       32.6910281035
  S        17.1806462293       31.4967635183       17.6203431733
  S        11.2667767753       22.3451150777       22.8759576396
  S        25.0106622073       13.2540462841       26.8398897341
  S        33.8909711330       29.0702710251       27.5083344348
  S        28.4966696497       26.6140932833       33.3374676334
  S        23.8720479379       24.1796441390       11.4652660535
  S        27.4789576983       25.7874896617       12.9803334341
  S        19.1263049363       33.3961957593       30.2769775011
  S        28.7917227342       17.5652769541       32.7220417628
  S        21.2849120687       34.0047856714       24.6646989037
  S        31.0737729811       32.3777726667       27.9959922978
  S        28.9023074404       29.2128428917       16.1940023218
  S        33.5389544640       17.3469651637       23.7936952373
  S        34.8847032092       21.8626371800       23.5387030788
  S        19.0957050342       13.7226151769       25.6059907082
  S        20.8855172753       33.6647732763       19.2591094940
  S        12.5759057091       19.4027806973       19.6449637980
  S        18.6944397532       30.3773305907       33.6740339162
  S        31.8501933420       31.0417236857       23.3366313361
  S        35.3286109749       27.2532830651       23.4103636255
  S        31.1281863292       30.6154054120       31.8396709445
  S        23.0598653140       13.2786112379       23.3172828419
  S        32.0611992508       19.2253569445       19.7227272418
  S        28.7151073620       14.6163032896       17.7210417083
  S        15.5079420913       30.4343188573       29.2890984080
  S        31.5760063082       21.9192854285       31.0590667738
  S        20.4691726032       26.4318605995       13.8056880734
  S        17.1662143634       26.9419135391       16.3479627707
  S        27.3643284976       12.8659363452       21.9598863740
  S        16.8300362434       33.5565385810       26.1895937844
  S        15.3254391099       21.5685899782       31.1928239016
  S        21.1378187800       16.6516601380       15.6086327246
  S        24.6593535149       29.0938171009       13.4658601285
  S        20.1419518596       22.1460597814       14.1383140903
  S        21.1332451038       31.3238896643       15.1001168387
  S        23.6819086587       34.1789209442       28.1094693288
  S        13.3184742618       17.3339685857       29.4109953979
  S        24.3843930513       33.5515114535       22.1347077280
  S        27.6733821609       21.1222682461       12.4044928153
  S        16.4557767833       22.9982003365       16.7486847876
  S        26.0846936871       16.5083929737       14.6277413463
  S        16.9481071763       14.0227058713       30.1357102061
  S        28.6148608383       14.0188496583       29.8058191424
  S        27.5717195178       33.9062313650       30.7405744981
  S        32.7084028253       28.2542945614       19.6004150196
  S        24.9896425533       14.6714408805       32.7104950791
  S        14.3546772004       29.3207352181       19.3055539376
  S        13.4134554151       25.8266468947       27.3322062978
  S        34.5660621935       20.2148513736       27.8172298668
  S        30.2232413963       23.5972067268       15.9506483260
  S        18.8397455905       25.7372438816       34.5804913704
  S        35.2855293781       24.8184461980       27.2751891613
  S        19.8316205827       20.6357833077       34.6867266702
  S        32.1269718802       26.0833892319       31.0711994635
  S        23.7229950777       19.6430579471       12.7020744990
  S        17.2556521986       33.4618644954       22.2677181285
  S        15.6941390760       26.1151833678       30.6389131043
  S        11.8570477197       26.9964217350       23.0229533014
  S        24.4037580194       13.1292084535       17.4413283377
  S        13.0798708680       24.7790721845       19.1871595329
  S        21.5205387625       13.4904331777       29.1666594140
  S        16.7564156545       17.4331937013       32.6208808732
  S        15.7398899765       15.7354326915       21.3621011207
  S        14.7256625358       15.0684264860       26.1230120286
  S        25.2846456314       32.8661235078       16.2118852413
  S        29.6516784553       13.5698127118       26.0269112260
  S        20.0918255403       13.8212885525       19.2638245817
  S        27.2295444015       33.5264283666       25.7467245315
  S        12.7904877061       21.6873848877       27.7083919667
  C        21.2692048979       14.0884622321       33.2017317636
  C        30.3898741206       32.8588111707       19.8998563471
  C        23.2731179372       24.2511704541       36.7645354477
  C        23.5350030467       18.9160359628       37.0957404672
  C        11.0438072883       19.1916234521       24.9862014633
  C        32.6591040142       15.7358710124       29.2983235666
  C        31.6326766187       13.0841650356       21.8124721812
  C        31.6155920843       19.9938264911       15.9344732614
  C        28.0550323592       23.0576895542       34.8112270539
  C        22.6566789966       29.4071102476       35.7383488257
  C        13.2103701872       31.6868009967       24.4770400415
  C        17.0260228471       16.6027675218       16.1823410981
  C        33.1981476040       24.1871092589       18.3639599028
  C        26.5179858416       32.6244241237       34.0194989410
  C        22.4310902324       34.1392268911       31.9981105668
  C        16.9641979042       33.3201110681       17.5972539178
  C        10.5231220573       22.2137519833       21.2026417626
  C        26.4268624863       12.2105932829       27.3456955851
  C        34.8112188590       28.2390879562       28.8577764957
  C        28.0007555271       27.7035737076       34.7228035913
  C        23.0936034354       24.0721280451        9.8022613236
  C        26.7715908662       26.4377203465       11.4205680449
  C        17.6798879750       33.2709610715       31.4005729147
  C        29.5076251347       18.5072414951       34.1242196392
  C        19.8084027613       35.0698826775       24.4749278101
  C        32.5818756151       32.4854824910       29.0303571319
  C        28.6665452182       30.2031513475       14.6702194380
  C        34.5018299444       16.6556940015       25.1943330303
  C        35.6624731421       21.9991950179       21.8827375211
  C        17.4847943593       13.0108301846       25.1056351613
  C        21.8199994525       35.1509337243       19.7920113259
  C        12.4647461908       17.8488918505       18.6752506051
  C        18.7825842566       29.8278542487       35.4227047032
  C        33.5474387719       31.4381211925       23.9025230004
  C        35.8281802583       28.6626669296       22.3464073899
  C        32.0866766191       30.8906348647       33.3851618915
  C        21.5590611838       12.2889770110       22.9752215018
  C        33.2459919327       17.8833144009       20.1041421759
  C        28.1893048782       12.8654740749       17.8891337888
  C        14.3036891066       29.6725230099       30.4445315301
  C        32.9929792308       20.7671939026       31.1826782329
  C        18.9427088351       25.6762206605       13.1255969105
  C        15.9586108450       28.2926211984       16.0881988510
  C        26.2624536677       11.4418852247       22.3119287222
  C        15.1655313317       33.9369943564       26.8655580346
  C        15.2513338460       20.6917754533       32.7983244472
  C        21.8893505199       15.4705556296       14.4261076677
  C        23.0923223566       29.3125582515       12.5409372195
  C        20.3189734116       20.7523587450       12.9643296025
  C        21.6070827109       33.0939538331       15.2125003241
  C        24.1058947943       35.4902786309       26.8993385923
  C        11.8570326742       17.2519417736       30.5249319816
  C        25.9299911786       34.5261391874       22.2350553318
  C        29.0089232356       21.0212315749       11.1437349315
  C        16.4772937703       21.8115866559       15.3557752881
  C        27.8748894281       16.2074229001       14.3763473748
  C        16.4557023418       12.2591988578       30.3116415663
  C        29.9066934135       13.7759630087       31.0881444968
  C        28.0106096512       35.6897502173       30.8384664201
  C        32.5240534334       29.4445560052       18.2152741987
  C        25.9294717159       14.9834264766       34.2563803440
  C        12.9664492364       30.1693780982       20.1536276504
  C        12.0790279220       26.9465935728       26.7706894796
  C        36.0951245498       19.6350195103       26.9818047357
  C        30.5224775640       24.8127794240       14.6147436983
  C        18.9986508035       24.5092361564       35.9355348433
  C        36.5971007602       24.7421666288       25.9928997521
  C        19.8176200466       19.2772260321       35.9163628045
  C        32.1138830612       25.3759328742       32.7633078758
  C        24.9335787583       18.8048764359       11.6121455083
  C        15.7679933540       33.6549142808       21.2110439103
  C        15.2906686850       25.3023754851       32.2279773557
  C        10.7548607460       27.4224075848       21.6173739942
  C        22.9603221733       12.3889762724       16.5832993104
  C        12.9594441405       24.4027829123       17.3956047578
  C        21.5336213695       12.0155053773       28.0765045822
  C        16.7691540188       15.7604115811       33.3678541237
  C        13.9433343285       15.3766273541       21.3186409356
  C        12.9423898781       15.0678884858       26.5419761441
  C        26.9606826787       33.5199920755       15.8496499418
  C        31.4169843472       13.2743821302       25.6227004989
  C        18.3069181517       13.5063913091       18.9734022860
  C        28.9294407577       34.2061301157       25.7729406096
  C        12.2005516327       22.6223137981       29.1718020216
  H        22.3089650755       14.0437652829       32.8607442328
  H        21.1602061181       13.5425846862       34.1460522186
  H        20.6089135606       13.6588253762       32.4373200174
  H        30.8544736226       33.2467170208       18.9861957256
  H        30.4416185154       33.6140577476       20.6931170086
  H        30.9046450081       31.9498927588       20.2328476095
  H        24.1428446945       24.8529397063       37.0539956451
  H        22.5692020388       24.8795463432       36.2062744081
  H        22.7906479983       23.8406704862       37.6588639807
  H        23.3326319399       18.1302147818       37.8320827034
  H        24.2914757236       19.6085752185       37.4835137447
  H        22.6215400586       19.4758354443       36.8700798979
  H        11.2198710127       19.1630187780       26.0692987207
  H        11.0518486868       20.2294775909       24.6367595943