115
Energy =  -1240.2330708834
 Au        15.0380435827       14.9242505665       14.9473210832
 Ag        17.6809063425       15.8910513110       15.2126199855
 Ag        16.8332368578       13.3685577293       16.5100962122
 Ag        15.3901670019       17.7402474058       15.0750339335
 Ag        15.7640172228       15.9312537673       17.4961601486
 Ag        13.2706148691       16.5015641291       13.3933124935
 Ag        12.3841251761       13.9127472674       14.7130277095
 Ag        14.7069815986       12.1056623838       14.7711574364
 Ag        13.9098286243       13.6549785101       17.2252771040
 Ag        16.1209019069       16.1889814947       12.6369412356
 Ag        14.3417554191       13.8572278710       12.4181869271
 Ag        12.9987026760       16.3301078380       16.3267778026
 Ag        17.0408192101       13.4469844860       13.5716211126
 Ag        13.3737129154       15.8849653657       19.3579040273
 Ag        18.0873245509       18.4896721180       13.6375476942
 Ag        12.2937974969       11.0868811675       16.2907011656
 Ag        13.8791189074       16.0270786277       10.3300042185
 Ag        19.6679435897       13.5280584254       15.0949674695
 Ag        17.6417115720       18.3537496595       17.0896157609
 Ag        12.3054411970       11.5655472371       12.7786828840
 Ag        16.7984455759       14.0551564617       10.5333672868
 Ag        10.4169241187       16.3886498917       14.5094405775
 Ag        12.6188192589       19.0608873988       15.0719094812
 Ag        17.5286904760       10.7133514094       15.2106060545
 Ag        15.8916382927       13.4285174309       19.5304092385
  S        10.2942794294       18.8048698373       14.4458083139
  C         9.4167682632       19.3761391971       15.9558416928
  S        20.1443703999       15.8873667263       14.8254781302
  C        20.9902643927       16.3721611033       16.3866505427
  S        11.9787913332       17.1255693076       11.3591064348
  C        12.1983438456       18.9314288143       11.0886993151
  S        12.9628581982       11.7511365267       18.5221649579
  C        11.4560053818       12.3654607949       19.3787354711
  S        17.5515685317       12.0155272217       18.4732725489
  C        19.2045588653       12.6427649490       18.9799267599
  S        17.5410251472       17.8057217373       11.3743325653
  C        16.3426073864       19.0625601046       10.7707308192
  S        14.7648164512       20.1256294421       15.4947712802
  C        15.0685599703       21.0580735766       13.9358125132
  S        11.8660477783       17.4440585109       18.2586866942
  C        10.2239180628       16.6361114545       18.4652316767
  S        19.0685866959       19.5762476831       15.5644400582
  C        18.4050716906       21.2854253339       15.6750931681
  S        18.4541750282       12.6839429351       11.6608132147
  C        17.8743844854       10.9737238625       11.3073006730
  S        16.7706164991       17.4730031656       19.1799894753
  C        18.2090138975       16.5418315755       19.8513581647
  S        15.3193515345        9.7229958679       15.1545732643
  C        15.1468532714        8.8603828622       13.5395196284
  S        12.8384640260       12.7722533024       10.7486834914
  C        13.8322551279       11.5986130626        9.7382074010
  S         9.9065903204       14.0171700410       14.4305325539
  C         9.2520365963       13.6056792352       16.0988420578
  S        14.3212105192       14.4532102046       21.0614581031
  C        15.2342999954       15.6464275599       22.1180614172
  S        11.4576175229        9.9267516095       14.3385594613
  C         9.6440130390       10.2067882954       14.2423277757
  S        15.4405530507       15.0167697745        8.7805840358
  C        16.5230275744       16.3256953646        8.0835798684
  S        19.8981266263       11.1484708258       15.4490655821
  C        20.7351565860       10.6097163625       13.9046304021
  H        15.9079110439       17.0210846362        7.5015049675
  H        17.2559604375       15.8488414520        7.4220647531
  H        17.0539593056       16.8666830599        8.8770021588
  H        14.3658395944       12.1720155779        8.9703593334
  H        13.1506404628       10.8869054923        9.2582092813
  H        14.5573779848       11.0488840540       10.3459550590
  H         9.2681499489        9.7174012810       13.3360625482
  H         9.4092758044       11.2772407032       14.1948846300
  H         9.1684978353        9.7568809277       15.1210869536
  H         8.1890766611       13.8708495377       16.1387700207
  H         9.7889768519       14.1429591230       16.8859847711
  H         9.3662232379       12.5265307135       16.2659580925
  H         8.3937038771       18.9837388195       15.9459213407
  H         9.3856677432       20.4720745180       15.9393219906
  H         9.9348667287       19.0473007466       16.8642101427
  H        10.8507931138       11.5041327124       19.6845517226
  H        10.8570606938       13.0167736729       18.7349015347
  H        11.7727384205       12.9246632151       20.2677222391
  H        15.9652117370       15.0986756254       22.7234526942
  H        14.5133087806       16.1411845892       22.7795134293
  H        15.7428858883       16.4054438530       21.5108226682
  H        18.8520373761       17.2356029889       20.4054369510
  H        18.7909364245       16.0698969769       19.0533626665
  H        17.8422046457       15.7593888381       20.5289415193
  H        19.9569238314       12.1770626576       18.3316385815
  H        19.3873396002       12.3527670490       20.0210154735
  H        19.2746537592       13.7309135199       18.8887485939
  H        22.0273355383       16.0195645717       16.3468159382
  H        20.4979667683       15.9462727633       17.2662727643
  H        20.9751235200       17.4662955315       16.4594903566
  H        21.8026858334       10.8438258907       13.9923237429
  H        20.3253983125       11.1291651138       13.0297066880
  H        20.6095504385        9.5270738126       13.7910270440
  H        18.2708359176       10.6594955919       10.3348209258
  H        16.7816312266       10.9145149317       11.2873373784
  H        18.2487833324       10.3024383174       12.0914601097
  H        14.0871005629        8.6156323541       13.3971103990
  H        15.7357256957        7.9363831142       13.5691881677
  H        15.4882139342        9.4814895858       12.7059507009
  H        11.9501591742       19.1626380205       10.0463627584
  H        13.2237572043       19.2532660888       11.2950647009
  H        11.5097096979       19.4625935276       11.7570006292
  H        14.4715593115       20.6664437363       13.1067149647
  H        16.1323250561       20.9939445161       13.6720909903
  H        14.7966837516       22.1068973424       14.1052027959
  H        15.7938356947       18.6440570518        9.9168339423
  H        16.8928832832       19.9546137033       10.4496653482
  H        15.6253133454       19.3395583846       11.5488941276
  H         9.6369168320       16.7600648471       17.5457208783
  H         9.7043737114       17.1234802919       19.2989767045
  H        10.3225529963       15.5685690956       18.6839338691
  H        18.7160527948       21.8484866076       14.7879707310
  H        18.8254020174       21.7577500529       16.5708321047
  H        17.3112096997       21.2815388814       15.7519497892
