309
Energy =  -1538.3518777878
 Au        18.0011599581       17.9997525403       17.9993223071
 Au        20.0969667915       16.2381614509       18.6309182557
 Au        19.1016916286       17.9105555312       20.9859882067
 Au        16.7518918158       19.4822350305       20.0493892295
 Au        20.6231725845       18.6344453991       17.1955544566
 Au        19.6360567391       20.1928873860       19.6459050823
 Au        18.7137771891       20.9111934164       16.2543228120
 Au        21.5195588379       16.1000464395       21.8135572282
 Au        23.0476655779       20.2321117962       18.7870726251
 Au        18.2797032976       21.0510855286       22.8441734599
 Cd        21.2093911106       19.5516061398       21.9141013641
  S        17.9856964129       20.1039033947       14.1543120909
  S        19.5006687416       22.1107668185       18.1441242591
  S        21.1283910032       14.5735336750       20.0479541705
  S        21.9678786969       17.5869710481       23.5913478502
  S        22.3784889791       20.1705546166       16.5400481750
  S        23.6281753297       20.2547854206       21.0594622231
  S        16.0968576469       20.5132431516       22.1508170850
  S        20.4586342301       21.5684440151       23.5669091253
  C        19.5008830861       19.5501206990       13.2359027609
  H        20.0401365216       18.8504625352       13.8893788449
  C        19.0572548574       18.8315842149       11.9536489888
  H        18.4613693655       17.9433150677       12.2161394593
  H        18.3955044386       19.5006562696       11.3825978123
  C        20.2682706219       18.4322917711       11.0915148204
  H        19.9184632674       17.9485084937       10.1673755721
  H        20.8567827417       17.6751092657       11.6304869582
  C        21.1530920048       19.6455785283       10.7662510897
  H        22.0322882036       19.3346821614       10.1819838716
  H        20.5913620680       20.3472026361       10.1312487976
  C        21.5920150295       20.3655221045       12.0508217173
  H        22.1877844745       21.2591670188       11.8123288906
  H        22.2531302754       19.7009551464       12.6285161855
  C        20.3857381715       20.7645554282       12.9219767996
  H        19.7803316070       21.5167056895       12.3937631633
  H        20.7197393102       21.2279107483       13.8625097233
  C        18.0319091754       23.1120248845       18.7166422554
  H        17.2446959785       22.3789214751       18.9389819520
  C        18.4092449512       23.8928983006       19.9861760204
  H        17.4803092030       24.3351413349       20.3847878356
  H        18.7816720330       23.2013894016       20.7584837498
  C        19.4197755859       25.0178278649       19.7118924958
  H        20.3769995624       24.5732842168       19.4025660602
  H        19.6188606093       25.5719026801       20.6410455148
  C        18.9167111883       25.9671827794       18.6110422177
  H        19.6706799551       26.7398855558       18.3984910454
  H        18.0231863028       26.4995583177       18.9726213417
  C        18.5630196613       25.1956880183       17.3279909375
  H        18.1537216781       25.8772330161       16.5678783689
  H        19.4761487994       24.7608651375       16.8964998679
  C        17.5573442087       24.0691089664       17.6104723646
  H        17.3333206793       23.4985640826       16.6971282446
  H        16.6042673609       24.5078570784       17.9504713318
  C        22.8116072640       14.1811746598       19.3820989896
  H        22.6006302907       13.6866830536       18.4211516878
  C        23.4961676740       13.1801258463       20.3265618023
  H        23.5954039141       13.6554607204       21.3154276816
  H        22.8572468946       12.2967121780       20.4667447161
  C        24.8845254272       12.7732747207       19.7980303109
  H        24.7677054563       12.2125578022       18.8581388682
  H        25.3652395601       12.0849635866       20.5091077286
  C        25.7736203829       14.0019420288       19.5490505574
  H        26.7459775835       13.6942722861       19.1363814649
  H        25.9856496648       14.4967151406       20.5090411510
  C        25.0812157709       15.0005177254       18.6080211103
  H        24.9749510220       14.5457750643       17.6102593963
  H        25.7016069600       15.8988575816       18.4713975128
  C        23.6943524473       15.4065866149       19.1364168903
  H        23.7967834221       15.9501866358       20.0904996839
  H        23.1877279999       16.0952490662       18.4450551099
  C        23.8222064552       17.6380199682       23.6435754864
  H        24.1716787578       17.8457959125       22.6243807852
  C        24.3838892401       16.2903957626       24.1172841500
  H        23.9499898879       16.0498809450       25.0994228692
  H        24.0545765459       15.4977856117       23.4282447606
  C        25.9198442685       16.3333483054       24.2170518317
  H        26.2974684834       15.3681871161       24.5863056344
  H        26.3454782662       16.4662696547       23.2109385323
  C        26.3927076378       17.4803461327       25.1248377485
  H        27.4920009300       17.5233755177       25.1488484693
  H        26.0680981013       17.2822122142       26.1573257723
  C        25.8151428077       18.8269291577       24.6610252634
  H        26.1199704798       19.6334584227       25.3443500768
  H        26.2296688219       19.0837016379       23.6745303823
  C        24.2790632620       18.7804502105       24.5589104779
  H        23.8941675626       19.7344383246       24.1695763848
  H        23.8383105364       18.6406729718       25.5580954930
  C        23.6744335243       19.2542705958       15.5863082751
  H        23.2085691897       19.1343954543       14.5953751944
  C        24.0268202506       17.8728797250       16.1381153093
  H        23.1136194588       17.2628187744       16.2078022356
  H        24.4019846529       17.9979482977       17.1664911751
  C        25.0889003015       17.1848215124       15.2617281790
  H        25.3470037828       16.2060466543       15.6929513010
  H        24.6634155361       16.9806701349       14.2672051909
  C        26.3466891115       18.0556570719       15.1109548566
  H        26.8356714044       18.1563182904       16.0914195736
  H        27.0763588223       17.5661796798       14.4486965389
  C        25.9925274888       19.4527048357       14.5765312259
  H        26.8908912239       20.0857269460       14.5240422340
  H        25.6181338179       19.3641924119       13.5455103723
  C        24.9239629994       20.1374307840       15.4497750395
  H        24.6498871343       21.1169851980       15.0328446854
  H        25.3222803841       20.3250702349       16.4591996601
  C        23.8693280542       22.0245610092       21.5513997976
  H        23.7155979266       22.0106361913       22.6420152745
  C        25.3154277925       22.4498746566       21.2501981285
  H        26.0180436486       21.7490479214       21.7233262685
  H        25.4778387681       22.3720421695       20.1643164376
  C        25.5815726860       23.8922659074       21.7211071796
  H        26.6104929312       24.1847131319       21.4632538414
  H        25.5161115405       23.9341915430       22.8188278609
  C        24.5703791179       24.8781276049       21.1142782293
  H        24.7212221505       24.9269512848       20.0256441906
  H        24.7485746819       25.8938410375       21.4981312064
  C        23.1266043903       24.4389404307       21.4050820423
  H        22.4104202768       25.1213520246       20.9236501723
  H        22.9317342270       24.5026905750       22.4863791490
  C        22.8652566003       22.9986854536       20.9286474543
  H        21.8399194668       22.6899838768       21.1771185090
  H        22.9532248402       22.9338868344       19.8320599249
  C        15.2656024671       22.1174627489       21.7278504053
  H        15.9288102274       22.6543589408       21.0386289864
  C        15.0634267544       22.9545128578       22.9977332762
  H        14.4891587640       22.3616629816       23.7255580465
  H        16.0406380639       23.1604641678       23.4596586588
  C        14.3149991262       24.2630612139       22.6817676921
  H        14.9453043752       24.8947921068       22.0376277881
  H        14.1540085256       24.8336742268       23.6084570171
  C        12.9769754587       23.9908583881       21.9755862943
  H        12.3036912329       23.4614008866       22.6662284541
  H        12.4776784437       24.9377405592       21.7211226880
  C        13.1808943081       23.1368623317       20.7139899257
  H        13.7535972805       23.7138198646       19.9716876208
  H        12.2132793597       22.9058279471       20.2426463473
  C        13.9311312558       21.8292866553       21.0278545800
  H        13.3142122610       21.1938288288       21.6818603203
  H        14.1168697633       21.2522049229       20.1087540454
  C        20.6267381104       20.9217819110       25.3000939494
  H        20.7891081756       19.8375259141       25.2246708875
  C        21.8664539676       21.5775523977       25.9295923502
  H        21.7291951509       22.6692870379       25.9195291534
  H        22.7559206021       21.3670240513       25.3185234910
  C        22.0797055825       21.0890310075       27.3746155945
  H        22.3105444966       20.0130975632       27.3619507090
  H        22.9573084851       21.5879674818       27.8119703331
  C        20.8326916051       21.3335292108       28.2388898431
  H        20.6762475360       22.4169429504       28.3500895665
  H        20.9860179743       20.9367729850       29.2537181328
  C        19.5847796151       20.7041758958       27.5989671039
  H        19.6881184950       19.6087934300       27.5997628432
  H        18.6895356294       20.9293639392       28.1973347709
  C        19.3810885196       21.1926768042       26.1527623563
  H        19.1738943045       22.2732845161       26.1448462532
  H        18.5085443159       20.7063375417       25.6909727144
 Au        15.9054614152       19.7613426991       17.3675566415
 Au        16.9006426420       18.0891211902       15.0124197746
 Au        19.2503417306       16.5173069071       15.9491792884
 Au        15.3790503035       17.3651717432       18.8030712447
 Au        16.3660609361       15.8070008900       16.3527261718
 Au        17.2883402445       15.0883887215       19.7442114047
 Au        14.4827707708       19.8993767757       14.1847113472
 Au        12.9540595379       15.7681189099       17.2118552789
 Au        17.7228359192       14.9482586958       13.1547062491
 Cd        14.7925831141       16.4482526606       14.0846256262
  S        18.0167967579       15.8956936349       21.8440880145
  S        16.5010442577       13.8890491946       17.8544244420
  S        14.8740258050       21.4258396478       15.9503619846
  S        14.0340608975       18.4125378156       12.4069223593
  S        13.6233828725       15.8295619856       19.4588298883
  S        12.3738025875       15.7452750483       14.9394022954
  S        19.9056996301       15.4860144446       13.8479310300
  S        15.5437091824       14.4312761476       12.4322911252
  C        16.5017392414       16.4493983805       22.7627360882
  H        15.9622395061       17.1488747238       22.1092638717
  C        16.9454755364       17.1681865281       24.0448201594
  H        17.5410119289       18.0566135246       23.7820476300
  H        17.6075936820       16.4993943169       24.6157645689
  C        15.7345785672       17.5672447279       24.9072409164
  H        16.0845634671       18.0510836113       25.8312918449
  H        15.1457773170       18.3243175247       24.3684322178
  C        14.8500492499       16.3538115964       25.2327747153
  H        13.9709080391       16.6646130091       25.8171617539
  H        15.4120039013       15.6523393008       25.8677323280
  C        14.4110029934       15.6336810975       23.9483489014
  H        13.8154486427       14.7399445308       24.1870121425
  H        13.7496368548       16.2980755289       23.3707424479
  C        15.6171520542       15.2348424531       23.0769293649
  H        16.2228210313       14.4827986220       23.6050200652
  H        15.2830063412       14.7713831540       22.1365000952
  C        17.9695777724       12.8875985819       17.2817009962
  H        18.7568178500       13.6206193142       17.0591824077
  C        17.5919923954       12.1065989375       16.0123174797
  H        18.5208296776       11.6641057782       15.6137563079
  H        17.2196841710       12.7980464148       15.2399133549
  C        16.5812448450       10.9819406655       16.2869201678
  H        15.6241892066       11.4267533820       16.5963847368
  H        16.3818635138       10.4277851926       15.3578747877
  C        17.0843060938       10.0326079074       17.3878009969
  H        16.3302216183        9.2600830391       17.6005928094
  H        17.9776693935        9.5000052496       17.0261580245
  C        17.4383885055       10.8041843418       18.6706855298
  H        17.8476971990       10.1226837535       19.4308289069
  H        16.5254244006       11.2392423141       19.1022943523
  C        18.4442063001       11.9305546744       18.3878687900
  H        18.6685698561       12.5011263310       19.3011052364
  H        19.3971127258       11.4915720938       18.0476715372
  C        13.1908087797       21.8181448600       16.6162513368
  H        13.4017839878       22.3124826281       17.5772779157
  C        12.5062425119       22.8193328141       15.6719365927
  H        12.4070099344       22.3441509338       14.6829922656
  H        13.1451432892       23.7027839310       15.5318979937
  C        11.1178866111       23.2260951663       16.2005551624
  H        11.2347567393       23.7866874397       17.1405203878
  H        10.6371408816       23.9144889286       15.4895882825
  C        10.2287523806       21.9974250577       16.4494795412
  H         9.2564456432       22.3050924469       16.8622673610
  H        10.0165999310       21.5027996811       15.4894364568
  C        10.9212100344       20.9986503413       17.3902522920
  H        11.0275165116       21.4532042729       18.3880981524
  H        10.3008156096       20.1002796569       17.5267291102
  C        12.3080654433       20.5926983532       16.8617118197
  H        12.2055628043       20.0493320630       15.9074995183
  H        12.8147089774       19.9038657107       17.5528898364
  C        12.1796999908       18.3618209679       12.3549860086
  H        11.8303844274       18.1539641744       13.3742206687
  C        11.6182278691       19.7096281609       11.8815766983
  H        12.0518848452       19.9501552305       10.8993311608
  H        11.9479074801       20.5020697768       12.5706230243
  C        10.0822310805       19.6670694556       11.7822665361
  H         9.7047258882       20.6323638932       11.4132351476
  H         9.6568285635       19.5341338765       12.7884696334
  C         9.6088393901       18.5203098998       10.8744561096
  H         8.5095289565       18.4775095951       10.8507677546
  H         9.9331555850       18.7185353596        9.8418850529
  C        10.1862683634       17.1735187992       11.3378596576
  H         9.8810643017       16.3671856487       10.6544808669
  H         9.7719641842       16.9166594674       12.3244272491
  C        11.7224015904       17.2196329685       11.4395602472
  H        12.1071666460       16.2654781801       11.8286364472
  H        12.1629391534       17.3594691719       10.4402897634
  C        12.3276993243       16.7460987781       20.4126787816
  H        12.7936659014       16.8658951949       21.4035696384
  C        11.9754704725       18.1275325526       19.8608910495
  H        12.8887301245       18.7375102687       19.7912465284
  H        11.6002750210       18.0025796936       18.8325176302
  C        10.9135211192       18.8156893626       20.7373584219
  H        10.6554843131       19.7944808695       20.3061534554
  H        11.3390265494       19.0197799752       21.7318767155
  C         9.6556228625       17.9449901103       20.8880943149
  H         9.1666269361       17.8443557620       19.9076400575
  H         8.9259950917       18.4345484631       21.5503440886
  C        10.0096436517       16.5479391955       21.4225810286
  H         9.1111927474       15.9150018022       21.4750473385
  H        10.3840624122       16.6363978826       22.4536032820
  C        11.0780603072       15.8630842559       20.5492883404
  H        11.3520859077       14.8835220453       20.9662220190
  H        10.6796799726       15.6754345871       19.5398882706
  C        12.1327138840       13.9754306748       14.4477508874
  H        12.2865852876       13.9891456710       13.3571574284
  C        10.6865881517       13.5501598743       14.7488894376
  H         9.9840246165       14.2509101455       14.2755579503
  H        10.5240690824       13.6281816715       15.8347434452
  C        10.4205524076       12.1076970135       14.2781622430
  H         9.3915659708       11.8152983217       14.5358291030
  H        10.4862977274       12.0655632098       13.1804634550
  C        11.4316255960       11.1219839391       14.8854196488
  H        11.2806514745       11.0735004168       15.9740561325
  H        11.2534462706       10.1061613465       14.5018547503
  C        12.8754458219       11.5610517050       14.5946773288
  H        13.5915630113       10.8787507279       15.0763623763
  H        13.0704557587       11.4970319637       13.5134237592
  C        13.1367229155       13.0014209590       15.0708059216
  H        14.1620961417       13.3100782994       14.8224277477
  H        13.0486256611       13.0664251239       16.1673697156
  C        20.7370328326       13.8819224912       14.2712596911
  H        20.0739718433       13.3452153918       14.9607665955
  C        20.9390602710       13.0444341431       13.0016282195
  H        21.5131101252       13.6370508504       12.2734508573
  H        19.9617932255       12.8381621847       12.5399846691
  C        21.6877564350       11.7361171214       13.3179515367
  H        21.0577208228       11.1045632473       13.9625273666
  H        21.8485571261       11.1650975054       12.3914867813
  C        23.0259276760       12.0087772399       14.0236609916
  H        23.6989079324       12.5381401417       13.3326592240
  H        23.5254725644       11.0620667375       14.2783052658
  C        22.8221447079       12.8631409316       15.2850230525
  H        22.2497115507       12.2863064704       16.0276329102
  H        23.7898116988       13.0945027535       15.7560802609
  C        22.0716071151       14.1704777968       14.9708945074
  H        22.6882986408       14.8058438103       14.3165716363
  H        21.8859476127       14.7478214527       15.8898478813
  C        15.3757068007       15.0775479022       10.6989770795
  H        15.2134182604       16.1618367668       10.7741393563
  C        14.1359752269       14.4217838994       10.0695200323
  H        14.2732030944       13.3300380006       10.0798981920
  H        13.2464847923       14.6324701884       10.6805066788
  C        13.9228854163       14.9099409950        8.6243510486
  H        13.6919976824       15.9858636324        8.6367528967
  H        13.0453324669       14.4108357449        8.1870632937
  C        15.1699786477       14.6651927753        7.7602498614
  H        15.3264316414       13.5817510296        7.6493053272
  H        15.0167243544       15.0617765350        6.7453560772
  C        16.4178285451       15.2946882129        8.4001453338
  H        16.3145327447       16.3900682384        8.3992190868
  H        17.3131212394       15.0693795079        7.8019024309
  C        16.6213933005       14.8064147114        9.8464322446
  H        16.8283935661       13.7257639810        9.8545764656
  H        17.4939774985       15.2926528290       10.3082337295
