115
Energy =  -1157.2992535738
 Au        14.8996540896       17.8549707702       14.5969274513
 Au        17.9136902781       19.1218988263       15.5833921155
 Au        19.7371370022       16.1446800158       16.4058106348
 Au        17.3039920320       13.8065887772       16.1430381593
 Au        13.4375343822       16.4832131142       16.8807573811
 Au        12.0284324943       19.0776787473       15.1544843888
 Au        13.3911658417       18.7067285306       11.8560747423
 Au        15.1807861561       15.8596568324       12.2328114806
 Au        16.4784036579       16.5847674003       16.8833306574
 Au        14.7126686828       16.5813046939       19.8245349292
 Au        11.7672499648       14.6936927780       18.9494892279
 Au        12.4744085719       13.8229054011       15.7660828182
 Au        15.0098065249       12.1767075924       15.4093818130
 Au        12.0871013751       10.8814603896       14.3811752424
 Au        10.2321172763       13.8506845558       13.5727223076
 Au        12.6399658571       16.2554372905       13.8566918860
 Au        16.5444816163       13.5069616033       13.0784535706
 Hg        17.7603947152       11.2534337101       14.8168120391
 Au        16.5718278920       11.2249645760       18.1802896127
 Au        14.7584042594       14.1300119483       17.7544671671
 Au        13.4352011051       13.4854170721       13.0792979478
 Au        15.2726987590       13.3829427418       10.1759572266
 Au        18.2072946561       15.2935860101       11.0496630632
 Au        17.4296841817       16.2733313271       14.1899179914
 Au        14.9912731720       14.9878396468       14.9823143182
  S        15.7762400867       20.0471836814       15.2351185351
  S        20.1438316789       18.3963568932       15.8394514025
  S        19.6039438892       13.8602201944       16.9906188455
  S        11.8930015014       18.2897447540       17.3677376075
  S        12.0148909914       20.1842722795       13.0730169499
  S        14.8870887993       17.5139177435       10.4756556658
  S        16.9110142476       17.1846635691       19.2131973809
  S        12.5219496623       16.1987375310       20.6035125307
  S        10.7582333417       13.2223290910       17.4134673268
  C        15.9420161761       21.0871403504       13.7314024479
  H        14.9343283514       21.4110975905       13.4439024784
  H        16.3940071730       20.5289419662       12.9068460268
  C        20.7542003069       19.1651887994       17.3918909737
  H        20.7761939715       20.2513468898       17.2475212612
  H        21.7704175505       18.7938578577       17.5691102825
  C        19.4233192469       13.9036117807       18.8164626699
  H        19.0354948915       12.9287149668       19.1407543509
  H        18.7363526549       14.6989811620       19.1245166112
  C        12.8595582668       19.5523353750       18.2865138371
  H        13.7795165761       19.8114621612       17.7528003852
  H        13.0999996924       19.1354467436       19.2729150029
  C        10.3143879747       19.9206374515       12.4363975696
  H        10.0088768691       18.8740233638       12.5442601898
  H        10.2916168211       20.2223814465       11.3834120839
  C        13.8341671435       16.7636604243        9.1728727648
  H        14.4261453009       15.9879233110        8.6709456939
  H        13.5557708023       17.5476977318        8.4592454203
  C        16.9163827290       19.0172323820       19.3323985022
  H        17.8159584365       19.3839511275       18.8228404096
  H        16.9413953568       19.2968218350       20.3918785785
  C        12.6900771337       15.1746163286       22.1184255184
  H        13.2181527037       14.2385731108       21.9144120983
  H        11.6789335506       14.9526605543       22.4796514060
  C        11.2644744971       11.5674614104       18.0262427267
  H        11.0469261691       10.8429112254       17.2303808705
  H        10.6706599510       11.3343341946       18.9174861762
  S        14.2192438256        9.9407320760       14.7724467392
  S         9.8542794661       11.5877764413       14.1253510496
  S        10.3438040515       16.1383030261       13.0146225139
  S        18.1515519394       11.6605882887       12.4048628136
  S        17.9211229700        9.8046754827       16.8522233060
  S        15.0889048388       12.4551950419       19.5200392771
  S        13.0706076309       12.7797816089       10.7683515667
  S        17.4650681673       13.7732964838        9.4015055947
  S        19.2078318124       16.7710967483       12.5839971811
  C        13.9978182290        8.8963396876       16.2672160040
  H        13.3679498469        8.0404225497       15.9988769819
  H        13.5373898913        9.4611809223       17.0826481357
  C         9.2558647870       10.8133628747       12.5713864811
  H         9.2611108107        9.7258478546       12.7063365050
  H         9.8795576363       11.0900323023       11.7165072826
  C        10.5190681523       16.0986830280       11.1875359490
  H        10.9037587450       17.0760145529       10.8666272066
  H         9.5291808075       15.9239004025       10.7500480853
  C        17.1386648480       10.3378950703       11.6387278404
  H        17.7305228196        9.4165345789       11.5927972821
  H        16.8903492962       10.6773443358       10.6243271854
  C        19.6519915576       10.0634433504       17.3968023998
  H        19.9291595151       11.1236300664       17.3596914435
  H        20.3037363693        9.4823849732       16.7339174109
  C        16.1267093738       13.2115377071       20.8307888403
  H        17.0314067541       13.6648908863       20.4182352716
  H        16.3882765846       12.4358295539       21.5595012058
  C        13.0810762472       10.9451711475       10.7075474734
  H        13.9474644477       10.5328667161       11.2322581961
  H        13.0921427114       10.6318210790        9.6573053543
  C        17.2930665865       14.7871375554        7.8805793473
  H        16.7577380043       14.1946945446        7.1301249733
  H        18.3030252620       15.0169938493        7.5210396942
  C        18.7671299359       18.4267129483       11.9227180851
  H        17.7126931467       18.4726971258       11.6322332759
  H        19.4034077510       18.6301101219       11.0537399279
  H        16.5576311670       21.9594074705       13.9791969023
  H        20.1172960133       18.9127382197       18.2444308258
  H        20.4130246078       14.0776847167       19.2547187207
  H        12.2315930585       20.4439086779       18.3986209143
  H         9.6430710985       20.5609157355       13.0205391057
  H        12.9373830930       16.3040503420        9.5959881844
  H        16.0353665127       19.4503349723       18.8504085434
  H        13.2323176213       15.7592798275       22.8700126861
  H        12.3309731978       11.5421265506       18.2721882892
  H        14.9881889805        8.5445787655       16.5800807367
  H         8.2295900020       11.1612473571       12.4042384981
  H        11.2076559814       15.3074454828       10.8734980022
  H        16.2124555423       10.1630748049       12.1972837018
  H        19.7363146252        9.6861375648       18.4223830076
  H        15.5276585496       13.9962491212       21.3103155294
  H        12.1675988661       10.5879783038       11.1987840583
  H        16.7555184785       15.7188454897        8.0804830959
  H        18.9683459763       19.1591837338       12.7155430685
