115
Energy =  -1157.3057967851
 Au        14.8754217077       17.8841082685       14.6438742448
 Au        17.9524629517       19.1092587299       15.5960761922
 Au        19.7558176613       16.1496013218       16.4011918028
 Au        17.3386963480       13.6849024252       16.1402165490
 Au        13.4166381305       16.5025849416       16.9046443216
 Au        12.0065198523       19.1224153381       15.1842455422
 Au        13.3892845585       18.7298396494       11.9025109654
 Au        15.2396462588       15.8429608546       12.2343235120
 Au        16.5729214226       16.5268981895       16.9030569877
 Au        14.7030884823       16.5908188664       19.8211799518
 Au        11.7868269239       14.7151023117       18.9526055245
 Au        12.5178969784       13.7411980313       15.7695005618
 Au        15.1226756832       12.1149652759       15.3572068600
 Au        12.0456380831       10.8901256543       14.4036594775
 Au        10.2424766685       13.8498270841       13.5979951777
 Au        12.6595190444       16.3141968292       13.8599971147
 Au        16.5810555461       13.4958626391       13.0957559843
 Au        17.9918620344       10.8764869526       14.8165860186
 Au        16.6094777966       11.2692554594       18.0983657786
 Au        14.7583220830       14.1552863790       17.7656148241
 Au        13.4252328812       13.4721143644       13.0968191942
 Au        15.2946857570       13.4072171221       10.1789651714
 Au        18.2108252522       15.2832572825       11.0472581307
 Au        17.4797997791       16.2581720612       14.2303392641
 Hg        14.9989847102       14.9994744878       15.0000854324
  S        15.8141213644       20.0424298996       15.2983942349
  S        20.1862131119       18.3946375305       15.8223108010
  S        19.6284049026       13.8724457516       16.9846634198
  S        11.8711252955       18.3301453671       17.3968259091
  S        11.9920244612       20.2097200913       13.0934375261
  S        14.9045510364       17.5544625473       10.5308624291
  S        16.9120309137       17.1660477926       19.2339526135
  S        12.5108427033       16.2345190005       20.6063713085
  S        10.7910077010       13.2270782656       17.4286117684
  C        15.9523211302       21.0963599403       13.8012715620
  H        14.9394175910       21.4227266324       13.5358475295
  H        16.3885847103       20.5452423745       12.9635984395
  C        20.8044421953       19.1658939228       17.3707334273
  H        20.8259114358       20.2519829171       17.2264070748
  H        21.8214829845       18.7940147341       17.5418595340
  C        19.4558705225       13.9259625727       18.8113620286
  H        19.0871792036       12.9454472319       19.1403677013
  H        18.7568531967       14.7099771680       19.1208704970
  C        12.8404259393       19.5867195958       18.3209295108
  H        13.7730620069       19.8293552376       17.8015829247
  H        13.0589872842       19.1734042063       19.3137910889
  C        10.3001063398       19.9141175786       12.4475658690
  H        10.0104333915       18.8635106242       12.5612819684
  H        10.2805763555       20.2072236709       11.3920829974
  C        13.8716313290       16.8188799519        9.2041942724
  H        14.4796814601       16.0654356403        8.6879532026
  H        13.5849099448       17.6150034771        8.5074999559
  C        16.9228724990       19.0007783819       19.3056314372
  H        17.8398713823       19.3491943382       18.8147106721
  H        16.9180822021       19.3063603829       20.3581411306
  C        12.6777328745       15.2164946094       22.1257430404
  H        13.2086663273       14.2811724245       21.9260161750
  H        11.6660970810       14.9939422514       22.4851271724
  C        11.2512167178       11.5737413608       18.0812836196
  H        11.0472122262       10.8414454973       17.2890474701
  H        10.6232008867       11.3646266791       18.9550019119
  S        14.1837887840        9.9568680957       14.7025469566
  S         9.8119558398       11.6046499504       14.1762759242
  S        10.3699862576       16.1270871375       13.0149068948
  S        18.1267923263       11.6684509072       12.6038751364
  S        18.0069368511        9.7894843680       16.9075468062
  S        15.0942293605       12.4447371531       19.4699855282
  S        13.0856773210       12.8321768144       10.7661056949
  S        17.4871863184       13.7628345184        9.3942611692
  S        19.2064320237       16.7718296569       12.5708385069
  C        14.0448251462        8.9033034784       16.1998502647
  H        13.4250221495        8.0330596313       15.9556580730
  H        13.6079145955        9.4545556232       17.0370978712
  C         9.1946290521       10.8336987707       12.6273367767
  H         9.1734431647        9.7475526320       12.7712718178
  H         9.8266658309       11.0869593197       11.7713806892
  C        10.5429892549       16.0738454197       11.1882422058
  H        10.9117015954       17.0544363078       10.8594809265
  H         9.5547199816       15.8814406908       10.7545151224
  C        17.1575382542       10.4116184188       11.6800750207
  H        17.7739534515        9.5102711508       11.5834470608
  H        16.9388735752       10.8247389283       10.6871567487
  C        19.6989017589       10.0856266993       17.5530800303
  H        19.9883121601       11.1362775144       17.4391094034
  H        20.3844613172        9.4515212187       16.9789200041
  C        16.1275467725       13.1813090263       20.7957999817
  H        17.0187486285       13.6656161630       20.3887143411
  H        16.4147277702       12.3856523975       21.4928384786
  C        13.0751039548       10.9974220781       10.6948965238
  H        13.9388716707       10.5727467528       11.2141760573
  H        13.0795922904       10.6915775441        9.6424605126
  C        17.3208729729       14.7795622312        7.8739734677
  H        16.7819811776       14.1901810332        7.1237108503
  H        18.3326413955       15.0018679357        7.5148115058
  C        18.7462529412       18.4250161544       11.9177736292
  H        17.6894507306       18.4644304056       11.6351306791
  H        19.3743555621       18.6339398659       11.0440711724
  H        16.5724409787       21.9664241230       14.0452974065
  H        20.1726748210       18.9131485372       18.2270380745
  H        20.4442688898       14.1183604080       19.2448001170
  H        12.2240753818       20.4880981809       18.4176801069
  H         9.6146020259       20.5482748905       13.0217342352
  H        12.9801580024       16.3345175851        9.6106216270
  H        16.0593495432       19.4257212636       18.7861609572
  H        13.2169753109       15.8051783136       22.8762994604
  H        12.3080500618       11.5342654816       18.3637957241
  H        15.0576199090        8.5772050485       16.4660191850
  H         8.1775413655       11.2053125998       12.4559077061
  H        11.2421497079       15.2899331744       10.8787993883
  H        16.2249606264       10.1689992091       12.1995363573
  H        19.7186860921        9.7927316006       18.6086175663
  H        15.5195775456       13.9349517378       21.3118552756
  H        12.1583396053       10.6489477958       11.1862176633
  H        16.7897777131       15.7150121223        8.0726466328
  H        18.9501808011       19.1574851084       12.7098661188
