115
Energy =  -1236.3600893998
 Au        14.7788339423       17.9316902783       14.6725653319
 Au        17.8192115201       19.3126923443       15.6412665195
 Au        19.6290689269       16.3524369442       16.3923732676
 Au        17.3388658930       13.6381953625       16.1123054122
 Au        13.7386647672       16.6335538072       17.0777507751
 Au        12.0589703061       19.0631201714       15.1344560161
 Au        13.4189352549       18.6873253252       11.8122343081
 Au        15.2769579376       15.7554935167       12.1765439896
 Au        16.6077283036       16.5659320218       16.9535461709
 Au        14.9513967088       16.5630119918       19.9744455062
 Au        11.9533237810       14.9472547961       18.9603965529
 Au        12.9044945340       13.1536546448       16.1099724429
 Pt        15.2399233453       12.0937905973       15.3499860485
 Au        12.1338300274       10.7564751403       14.4401785972
 Au        10.3222584196       13.6319032535       13.5642915761
 Au        12.8561540042       16.1979814882       13.6319431015
 Au        16.4759369556       13.3462371391       13.0734560235
 Au        17.8597273011       10.8120990193       14.7716916545
 Au        16.5525787002       11.2499152621       18.0694882231
 Au        14.9963893548       14.2209864048       17.8430029265
 Au        13.5892542346       13.2338765321       13.2366187691
 Au        15.1979896445       13.3927202277       10.1821231101
 Au        18.1333265319       15.1774115702       11.1317937690
 Au        17.2383416858       16.7478106265       14.1115221158
 Au        15.0723210271       15.0083019382       15.0263797819
  S        15.6494196208       20.1565019646       15.3371295995
  S        20.0549221136       18.6286297427       15.9128136986
  S        19.6209191642       14.0426581207       16.8076786959
  S        11.8952067280       18.2055445819       17.3140178028
  S        12.0144898935       20.1418382424       13.0328417962
  S        14.8998313177       17.4705912992       10.4339380221
  S        17.0824536569       17.3054819250       19.2697403417
  S        12.8276526728       16.0417658469       20.8641040568
  S        10.8731290590       13.9177336388       17.1439543068
  C        15.7503829834       21.2157200430       13.8416498324
  H        14.7299294374       21.5325095561       13.5942210123
  H        16.1764003160       20.6678777360       12.9964116198
  C        20.6370057276       19.3414200407       17.5014719910
  H        20.6374239437       20.4331844563       17.4080198316
  H        21.6595096750       18.9829412526       17.6690896522
  C        19.5641094979       13.9588494422       18.6410723779
  H        19.2433791769       12.9477221223       18.9222584512
  H        18.8662485694       14.6979304677       19.0471859595
  C        12.5972507593       19.5511766727       18.3486284100
  H        13.5300353343       19.9340520980       17.9222118886
  H        12.7822457922       19.1390413829       19.3482381144
  C        10.3161411314       19.8059768922       12.4212093288
  H        10.0509267664       18.7508711594       12.5457900727
  H        10.2713400782       20.0914257947       11.3643676659
  C        13.8052162333       16.7446349610        9.1509720699
  H        14.3762715659       15.9737302809        8.6186408073
  H        13.5081540282       17.5394018617        8.4569988294
  C        16.9057443406       19.1334022001       19.2902453918
  H        17.7380825210       19.5613519860       18.7173904707
  H        16.9466775666       19.4748222032       20.3309527805
  C        13.1013834288       14.6872360245       22.0722541163
  H        13.5622720434       13.8165837631       21.5943181526
  H        12.1217865710       14.4078040475       22.4778060770
  C        10.1192335787       12.4083283413       17.8723199694
  H         9.7266530062       11.8012458405       17.0476752248
  H         9.2970950702       12.7247174137       18.5244780306
  S        14.3178136418       10.0047104248       14.8722284738
  S         9.8817927879       11.3935593385       14.1480349462
  S        10.5322736149       15.9156136961       13.0692198571
  S        18.1508975674       11.6405763231       12.5909118033
  S        17.8840298693        9.7165993653       16.8644326241
  S        15.2198222587       12.5012805884       19.5697069208
  S        13.0250201116       12.8037047171       10.8836883983
  S        17.3705552107       13.8053016383        9.3599520551
  S        19.2079636147       16.5092803055       12.7449301726
  C        14.1014158131        9.0148124844       16.4088071315
  H        13.5032646758        8.1297666505       16.1636231749
  H        13.6080374209        9.6051773735       17.1860682599
  C         9.2622632100       10.5844120750       12.6216889350
  H         9.2563082913        9.5017679402       12.7910291111
  H         9.8829271220       10.8257465137       11.7544021567
  C        10.5204764393       15.9354137453       11.2324450008
  H        10.8828186583       16.9177420961       10.9032443315
  H         9.4855737984       15.7890176056       10.9014117089
  C        17.2777785698       10.3956796570       11.5601441804
  H        17.9142602199        9.5063480740       11.4859965674
  H        17.1241817049       10.8322749847       10.5655135942
  C        19.6015637769       10.0086356883       17.4467222339
  H        19.8934016610       11.0555012528       17.3136163415
  H        20.2650180543        9.3646235976       16.8578536069
  C        16.4225553182       13.1103750049       20.8178739212
  H        17.3341506965       13.4869058571       20.3481229725
  H        16.6642705444       12.2843464419       21.4968015588
  C        12.9836485963       10.9784777813       10.6867232675
  H        13.8977034652       10.5180246094       11.0722397258
  H        12.8630312323       10.7443685123        9.6227964770
  C        17.1800164947       14.9609933527        7.9462938907
  H        16.5957787548       14.4591033263        7.1668742030
  H        18.1842878811       15.1869166820        7.5685726060
  C        19.3775017070       18.1447656256       11.9244581783
  H        18.4366586998       18.4602043393       11.4643941522
  H        20.1583195289       18.0586553238       11.1597794116
  H        16.3655010617       22.0922581352       14.0741161174
  H        19.9998636433       19.0336727290       18.3357316297
  H        20.5730890799       14.1508940343       19.0240122724
  H        11.8571092777       20.3575569775       18.4078386066
  H         9.6276116531       20.4296500013       13.0031434034
  H        12.9203915087       16.2808309071        9.5939872936
  H        15.9649916506       19.4464409617       18.8286692046
  H        13.7397610125       15.0668448148       22.8778623632
  H        10.8502363870       11.8317690099       18.4455921157
  H        15.0964547657        8.7109996259       16.7548148762
  H         8.2389839093       10.9394105439       12.4513685884
  H        11.1556989473       15.1425775941       10.8242673632
  H        16.3136154962       10.1269367947       12.0030550339
  H        19.6555949958        9.7282952509       18.5045258717
  H        15.9463628027       13.9281777275       21.3736867917
  H        12.1286480046       10.5990344597       11.2595821175
  H        16.6875257027       15.8885870513        8.2535623275
  H        19.6824850827       18.8683757759       12.6901281453
