322
Properties=species:S:1:pos:R:3 i=243 optimized=T E=-4324.129189053 pbc="F F F" jobid=102_44-Ag-40_2-000010-PBE
Au      16.86124062      17.01323136      15.85432547 
Au      17.69907504      16.98545954      18.71352935 
Au      18.64164768      14.88754882      16.91259027 
Ag      15.86663061      14.92656418      17.64982752 
Au      19.53563852      17.76510379      16.59872285 
Au      15.02881793      17.74933567      17.97362893 
Au      17.27183645      19.53557880      17.27297953 
Ag      17.88512394      15.02592835      14.01187275 
Au      16.66261223      14.98840609      20.59871192 
Au      18.23873400      19.52693405      20.22764602 
Ag      16.37661376      19.55431116      14.43732699 
Au      19.45928282      14.92116759      19.89151005 
Au      15.08166308      15.00181342      14.73213800 
Ag      18.68084560      17.85311416      13.71503228 
Au      15.93816494      17.84114339      20.95730897 
Au      20.44784178      17.72985092      19.53150482 
Ag      14.14214775      17.77577618      15.08623074 
Ag      21.34009123      15.67725868      17.68214177 
Ag      13.15928675      15.76154110      16.96112404 
Au      13.91002514      15.69613266      19.82591712 
Au      20.62442156      15.72243677      14.81124805 
Au      15.46879225      20.32525325      19.47517463 
Ag      19.13639520      20.34040629      15.20995249 
Au      20.06424849      20.36884276      18.03099151 
Ag      14.54034115      20.37344250      16.59624267 
Ag      17.63888244      12.79874737      18.81682463 
Au      16.84008143      12.76239457      15.76944380 
Ag      16.03022055      17.10819305      12.95064177 
Au      18.59081244      17.03337636      21.73650080 
Ag      19.69493812      12.92429371      15.12634957 
Au      14.81114408      12.96609588      19.42481852 
Au      13.16541652      18.50029280      20.06747457 
Ag      21.45838688      18.54187800      14.58869210 
Ag      20.39637694      12.89150555      17.94673290 
Ag      14.06337011      12.95270466      16.64741022 
Au      22.21049721      18.53011163      17.32379613 
Au      12.37604212      18.61741663      17.30515829 
Au      17.74469079      22.05365604      18.67093174 
Ag      16.84755727      22.12971302      15.97502039 
Au      20.46387070      19.26028942      22.04176733 
Ag      14.15509551      19.30532498      12.57612653 
Au      18.71391234      14.29255483      22.60976575 
Au      15.80824349      14.39897431      12.03711605 
Ag      17.31276777      19.32492754      11.61688525 
Ag      17.31852766      19.28543670      23.06776752 
Ag      18.27977395      16.17227406      11.32012801 
Ag      16.31726738      16.06604215      23.31342527 
Ag      21.39162238      16.26300165      21.80625458 
Au      13.22741669      16.36818017      12.78152243 
Ag      23.24436639      16.44590772      15.65777898 
Ag      11.29832750      16.52160140      19.03198865 
Ag      22.40655685      13.68648014      15.93587299 
Ag      12.07018180      13.74726289      18.64650120 
Au      14.97726111      22.76612765      18.19542538 
Au      19.68150194      22.82106358      16.63179723 
Au      17.83514646      12.36155649      12.99875924 
Ag      16.72702991      12.28492742      21.54152795 
Au      20.16307872      14.21963737      12.52562790 
Au      14.41273507      14.12600516      22.12160156 
Au      21.87335304      21.08084187      15.93431910 
Au      12.72945972      21.07322658      18.86941891 
Au      13.70016975      17.03766848      22.47253265 
Au      20.93938816      17.08763463      12.20998553 
Au      22.30718887      19.93985740      19.86224155 
Ag      12.29249785      19.94473257      14.73669851 
Au      19.98046041      21.80008642      20.48223935 
Au      14.61504925      21.73796652      14.16269389 
Ag      15.71863386      10.78828447      17.66324678 
Au      18.60578760      10.86131086      16.99865196 
Au      22.10076359      14.05040007      19.93614426 
Au      12.40488686      14.24242102      14.64248062 
Ag      17.05676425      21.79461486      21.49493825 
Au      17.61302073      21.77585483      13.22694537 
Ag      19.80189043      12.23131039      20.78038733 
Au      14.75772284      12.23727186      13.91972307 
Au      23.19458500      16.84113628      19.48785915 
Au      11.35419229      17.02409801      15.18850708 
Au      20.06946605      20.09255789      12.59012075 
Au      14.58424121      20.14359554      22.10953761 
Ag      20.53378307      22.88439445      13.68086382 
Ag      14.11950830      23.00363217      21.09537652 
Au      24.75834805      14.44294021      17.77107110 
Au       9.77294990      14.60002101      16.73667180 
Au      17.23783701      24.98226081      17.23136216 
Au      21.47587118      10.63089353      14.92027406 
Au      12.89378063      10.75278906      19.65018352 
Ag      16.39743624       9.80150460      14.03248770 
Au      18.29430503       9.75874161      20.78467473 
Au      10.45953391      18.29502498      21.25379209 
Ag      24.19946220      18.25729366      13.51917114 
Ag      24.50066889      20.29998548      17.07964226 
Au      10.08769683      20.41969747      17.74540908 
Ag      23.67806670      18.40515389      22.05852710 
Au      10.92193931      18.59967499      12.38539548 
S      19.40597868       9.51107240      14.90401621 
S      14.92955701       9.59569214      19.83814262 
Au      14.79019185      18.68719998      24.89892807 
Au      19.84286312      18.81863574       9.77393811 
Au      18.38158753      13.30749139      10.06713220 
Ag      16.20409929      13.12752212      24.42300601 
Ag      19.32709740      21.99204241      23.42343618 
Ag      15.36154893      22.04985831      11.26883820 
S      18.55076869      23.99672114      12.74973359 
S      16.12761681      24.04564446      21.97554755 
S      24.15982914      12.84298922      19.40254872 
S      10.34000476      13.03187243      15.05795473 
Ag      12.83677967      13.43932155      11.73820942 
Au      21.95490126      13.27669851      22.87526182 
S       8.94444156      16.09932874      18.34361399 
S      25.62570056      15.96188211      16.19706406 
S      11.32357819      17.10293987      23.12163978 
S      23.32069406      17.16648007      11.54375276 
S      22.89423826      22.55292380      14.26521015 
S      11.77987461      22.65710150      20.51665173 
S      22.21508802      19.33918441      23.74389454 
S      12.36678723      19.57904663      10.80973778 
S      19.07092204       9.03162382      18.69997312 
S      15.48573261       8.84561313      16.02739921 
S      16.03289008      13.39243756       9.80132048 
S      18.59694396      13.23388247      24.80282777 
S      18.45368535      20.38997928      24.98047201 
S      16.14831004      20.42108373       9.68962562 
S      24.26054491      21.28460534      19.31776964 
S      10.39929806      21.39432819      15.60831369 
S      14.88986240      25.08061021      17.42706065 
S      19.57717313      25.21849809      17.08583071 
S      17.07142520      10.37362113      11.76826350 
S      17.49486443      10.31375016      22.93760881 
S      15.96846571      16.81895323      25.70090821 
S      18.59020991      17.02039980       8.93734760 
S      22.18972175      15.33512748      23.98484967 
S      12.51782941      15.52911650      10.57028824 
S      23.53393949      11.77182893      14.78595348 
S      10.80847500      11.86064911      19.69700981 
S      13.76988770      13.06621677      24.20314273 
S      20.74439595      13.28872777      10.32690131 
S      21.76608700      11.11377726      21.95712839 
S      12.91441896      11.21081525      12.67792808 
S      20.71500277      23.47569113      22.06192351 
S      13.94553740      23.51812781      12.62226563 
S      25.23906361      17.00683982      20.81216584 
S       9.42992925      17.29771863      13.68997441 
S      13.85186543      20.80016789      24.34100885 
S      20.85841769      20.88196929      10.37426518 
S      25.62341499      19.39592162      15.10841824 
S       9.08872614      19.46231546      19.69751621 
C      18.98850570      14.53037029      26.03900042 
C      15.65537219      14.67654503       8.55058094 
C      23.57384361      22.96741900      19.06603348 
C      11.16135019      23.04012925      15.87131508 
C      20.90020345       8.97035621      18.84338297 
C      13.67504901       8.73864302      15.72655428 
C      10.72417503      15.38654401      22.89138902 
C      23.89688355      15.42706344      11.64025001 
C       8.17154349      15.05938196      19.64446484 
C      26.33303617      14.92982933      14.85299604 
C      22.79365054      21.07113261      23.93026206 
C      11.80097726      21.31634128      10.64641089 
C      14.64884848      26.17559962      18.88485781 
C      19.85928091      26.22524142      15.57686873 
C      23.99433119      15.55155166      24.24560044 
C      10.70810430      15.69384095      10.30925226 
C      19.81396844      16.00450212       8.02196152 
C      14.67814114      15.78671989      26.49933145 
C      19.78242769      24.99964171      21.64399504 
C      14.90303187      24.99782555      13.13081030 
C      21.25749884      11.56380056      10.67886310 
C      13.26754163      11.36192027      23.73948906 
C      24.61354360      10.96142073      16.03319545 
C      19.73199080       7.77512611      15.39886658 
C      14.57450034       7.84206588      19.42221614 
C      26.39039017      18.07281196      19.86084494 
C       8.23957008      18.41636964      14.52209225 
C      18.88007446      24.16479709      10.95310989 
C      15.79497386      24.23112081      23.77267600 
C      23.42095119      24.07262841      15.15188451 
C      11.22676871      24.15097137      19.60602620 
C      17.35774218      21.24316353       8.57812499 
C      21.15733179      10.09964901      23.36092772 
C      13.56221806      10.16571442      11.31599858 
C      12.02497838      20.65300935      24.36935677 
C      22.67789590      20.66338908      10.31954642 
C       9.17996273      13.38526090      13.68239280 
C      18.46231477       9.25907195      11.34532034 
C      16.17701233       9.08205936      23.27104879 
C       8.55310164      20.94008818      20.63739425 
C      26.16856573      20.90670304      14.22156983 
C      17.24641569      21.25031520      26.06460691 
H      16.72415905      20.48567193      26.65286651 
H      16.51032413      21.82293268      25.49420615 
H      17.79852305      21.91934033      26.73441723 
C      25.34696749      13.11363907      20.77234777 
H      26.30497029      12.66183665      20.48972658 
H      24.93810625      12.60967817      21.65719076 
H      25.48102549      14.18313300      20.97072077 
C       9.81247688      11.08085609      18.36396284 
H       8.94429749      11.72576546      18.18111272 
H       9.47919792      10.09565886      18.70822068 
H      10.38057770      10.98243473      17.43437946 
H      26.58967034      15.60543658      14.02731696 
H      25.61982444      14.17483578      14.50498577 
H      27.24256862      14.44278371      15.22190545 
H      26.69405897      17.53774229      18.95369713 
H      27.26587367      18.25984122      20.49397513 
H      25.92834542      19.02744245      19.58989298 
H      26.66482647      20.60793683      13.29105868 
H      26.88567747      21.43981606      14.85676751 
H      25.31468091      21.55827209      13.99341158 
H      24.38141472      23.60805488      18.69287764 
H      23.21307347      23.34357398      20.03063336 
H      22.74352279      22.95110679      18.35040722 
H      23.53148090      24.87972219      14.41792690 
H      24.38856587      23.88087975      15.63147529 
H      22.68868912      24.36087324      15.91327396 
H      20.13374906      25.37083846      20.67449797 
H      19.99977918      25.73939983      22.42390844 
H      18.70295023      24.81242324      21.60114995 
H      20.93838611      26.23473102      15.38222671 
H      19.51284473      27.24499988      15.78001551 
H      19.33368915      25.81090401      14.71017480 
H      17.92199654      24.24314039      10.42490708 
H      19.44967787      23.31067187      10.56967315 
H      19.45754235      25.08482452      10.80115649 
H      14.95136931      27.18984346      18.60081659 
H      15.23120160      25.83257921      19.74643809 
H      13.58181783      26.16625747      19.13639480 
H      14.72718989      25.77675944      12.37896676 
H      15.97622330      24.78187175      13.19223596 
H      14.53658150      25.33811897      14.10613582 
H      10.24703411      23.93996600      19.15994945 
H      11.93347321      24.41498055      18.81280869 
H      11.13466969      24.98147945      20.31576371 
H      16.81691309      21.94446542       7.93264584 
H      17.82840826      20.46340770       7.96685104 
H      18.13559578      21.77460393       9.13340753 
H      23.01193214      20.88431305       9.29881683 
H      22.96990930      19.64264182      10.58572917 
H      23.12519763      21.37663860      11.02171221 
H      23.40776719      14.86547933      10.83558125 
H      23.63595719      14.97459666      12.60351304 
H      24.98340862      15.41249246      11.49781724 
H      20.11802155      16.54980576       7.12168973 
H      19.31806217      15.06589730       7.74343761 
H      20.69027478      15.77498222       8.63543903 
H      21.13895063      10.96514991       9.76855660 
H      20.67151892      11.13518446      11.49747580 
H      22.31492910      11.59249552      10.96770600 
H      18.95505017       9.64437056      10.44566777 
H      18.04164782       8.26849078      11.13468496 
H      19.17718028       9.18618078      12.17225987 
H      13.47220104       7.83046098      15.14667120 
H      13.30617220       9.61065110      15.17475079 
H      13.15802049       8.67658487      16.69237339 
H      12.71193737       9.90613870      10.67400751 
H      13.99581625       9.25597344      11.74802625 
H      14.32781345      10.68426156      10.73055227 
H      15.86305133      14.24948688       7.56244826 
H      16.25803734      15.57861592       8.70293243 
H      14.58942618      14.91974502       8.64016418 
H       9.56233957      12.86917254      12.79276177 
H       9.10195184      14.46177395      13.49457121 
H       8.19700008      12.98138405      13.95223881 
H      10.41987685      15.00678204       9.50491694 
H      10.50147037      16.72881861      10.00933751 
H      10.14130270      15.46163808      11.21523003 
H       7.43888877      18.64464661      13.80880333 
H       8.71729545      19.34448305      14.84998887 
H      10.81154997      21.32066903      10.17602438 
H      12.52060341      21.83162988       9.99731074 
H      11.75611772      21.82765876      11.61272586 
H      11.44651244      23.42625679      14.88498119 
H      12.05785806      22.96525304      16.49864085 
H      10.42613978      23.70616424      16.33574536 
H      20.35300095       7.29381192      14.63550584 
H      18.75529996       7.27814071      15.45388672 
H      20.21996215       7.71012018      16.37571898 
H      24.90643103       9.97554161      15.65593992 
H      24.11646386      10.86414681      17.00287734 
H      25.50196662      11.59305872      16.15496759 
H      24.14774012      16.57019768      24.62397212 
H      24.55988782      15.42079817      23.31840829 
H      24.32979506      14.82425877      24.99326500 
H      20.04093014      14.81270076      25.91323881 
H      18.83677350      14.09082006      27.03210951 
H      18.34829145      15.41161437      25.92338793 
H      15.15304680      14.84759351      26.81119862 
H      13.85590095      15.56248139      25.81324123 
H      14.29839520      16.31744307      27.37908778 
H      12.23519706      11.39942201      23.37295408 
H      13.31845716      10.73239213      24.63542470 
H      13.90980285      10.95211409      22.95387466 
H      16.64329524       8.10089388      23.41390382 
H      15.45767353       9.04255534      22.44519718 
H      15.67360227       9.38482945      24.19689423 
H      20.75954011       9.16536980      22.94652167 
H      20.36213514      10.61183202      23.91222457 
H      22.00116774       9.88650487      24.02653447 
H      15.41007500       7.25521143      19.82439345 
H      14.53666131       7.69947509      18.33618416 
H      22.06321833      21.61461116      24.54314971 
H      22.90526147      21.57042354      22.96292826 
H      23.76055375      21.04708638      24.44655953 
H      11.61633222      21.48441251      23.78284116 
H      11.69686179      20.73138893      25.41243143 
H      11.68761524      19.70201841      23.94631904 
H      15.20938152      25.14526813      23.92495882 
H      16.75288582      24.32078951      24.29919828 
H      15.23756455      23.37386010      24.16614945 
H       7.82917638      21.48368524      20.01900860 
H       9.40987217      21.58401169      20.87479119 
H       7.23444516      14.64442020      19.25680258 
H       7.95717849      15.71607200      20.49679705 
H       8.83683248      14.24823949      19.96066298 
H       9.63823343      15.37700896      23.03701300 
H      11.21499637      14.76327324      23.64885314 
H      10.97920328      15.00902793      21.89431749 
H      21.32225503       8.99946917      17.83042324 
H      21.17574461       8.03075808      19.33667100 
H      21.28792619       9.81599134      19.42259289 
H      13.63943708       7.52013391      19.89044087 
H       8.06715463      20.59833087      21.55835419 
H       7.83045847      17.88337882      15.38834490 
