322
Properties=species:S:1:pos:R:3 i=272 optimized=T E=-4361.9227320572 pbc="F F F" jobid=102_44-Ag-50_0-000008-PBE
Ag      16.90458546      17.06590900      15.79668253 
Au      17.74490273      17.00324560      18.59665400 
Ag      18.66249481      14.97132901      16.79653505 
Ag      15.92485168      14.94415599      17.57161377 
Ag      19.59301690      17.76617705      16.54569863 
Au      15.08275083      17.77957994      17.91678785 
Ag      17.35843817      19.55705320      17.22069678 
Au      17.87873750      15.07070634      13.89132595 
Ag      16.70385069      15.01679566      20.49361591 
Ag      18.29533491      19.54353210      20.03425987 
Au      16.40435658      19.67439088      14.40762362 
Ag      19.50611501      14.94337351      19.73559269 
Au      15.08120840      15.05132800      14.65028967 
Au      18.68011117      17.92361258      13.61391352 
Au      15.92649038      17.90296577      20.81860734 
Ag      20.46569764      17.73598348      19.40601970 
Ag      14.18020108      17.82001484      15.05673404 
Au      21.42174324      15.71565903      17.57532827 
Ag      13.21310029      15.76055445      16.89082935 
Ag      14.01022591      15.77177810      19.70699177 
Ag      20.62352012      15.74433887      14.68447635 
Au      15.50682090      20.34923653      19.36592451 
Ag      19.16504112      20.35592082      15.12997860 
Au      20.13935284      20.34730776      17.92084838 
Ag      14.61765319      20.39588093      16.54155345 
Au      17.65911883      12.78621056      18.70179653 
Au      16.83247620      12.85093246      15.67065914 
Au      16.00823209      17.17049057      12.86665475 
Au      18.62214716      17.02498020      21.51656597 
Au      19.69376010      12.99688730      15.02247990 
Ag      14.86394710      12.98371388      19.35751024 
Ag      13.16417234      18.54758235      20.00597663 
Au      21.43726818      18.49279970      14.50360252 
Au      20.41135133      12.95886898      17.80721472 
Ag      14.06989312      12.98695502      16.56571729 
Ag      22.31192691      18.56232677      17.21488225 
Au      12.43407424      18.62385035      17.23251976 
Ag      17.85568563      22.06278528      18.60340332 
Ag      16.93576220      22.13386826      15.92191201 
Ag      20.47842654      19.22000741      21.93866962 
Au      14.16815766      19.44291250      12.63292620 
Au      18.83650223      14.31568390      22.43711600 
Ag      15.80948150      14.44025914      11.87496890 
Au      17.26656272      19.45396790      11.56286031 
Au      17.43040994      19.29856557      22.84505515 
Au      18.25743768      16.19371695      11.24085122 
Au      16.34001259      16.18148525      23.16251752 
Ag      21.38105568      16.23573351      21.72228600 
Au      13.20710978      16.42042048      12.73790006 
Au      23.27432575      16.46394988      15.50829452 
Ag      11.31934258      16.54790595      18.89883158 
Ag      22.42325573      13.67936608      15.84363722 
Ag      12.15829056      13.79581875      18.64129301 
Au      15.09799522      22.79041953      18.12136284 
Ag      19.74249970      22.80574247      16.49296412 
Au      17.76865222      12.36363688      12.92430295 
Ag      16.81165830      12.34580910      21.49486868 
Au      20.10932463      14.15402032      12.38328554 
Au      14.43309914      14.13669558      21.93026861 
Au      21.89235891      21.06986056      15.75190011 
Ag      12.80240778      21.11662698      18.71288153 
Ag      13.71205733      17.02843778      22.36565722 
Au      20.93281586      17.04436686      12.06146104 
Au      22.33216308      19.83856645      19.77519773 
Ag      12.31307929      20.05072711      14.73897763 
Ag      20.11879599      21.73696217      20.36210953 
Ag      14.67476660      21.91277154      14.13854735 
Au      15.85616649      10.90010642      17.45345455 
Ag      18.77469025      10.80058638      16.79190652 
Au      22.18259313      14.05132941      19.85171710 
Au      12.41462290      14.26194815      14.55265558 
Ag      17.09414140      21.76377507      21.38008285 
Ag      17.66210621      21.87753509      13.12234194 
Ag      19.74945796      12.16925390      20.55106805 
Au      14.75310829      12.31196840      13.76695655 
Au      23.21316085      16.82782820      19.39561078 
Ag      11.39501468      16.99283067      15.08381818 
Au      20.11460071      20.13165936      12.48217712 
Au      14.58160924      20.18562615      21.99824753 
Ag      20.57217002      22.96362900      13.54456869 
Au      14.03329298      23.22951176      20.96104669 
Ag      24.62703305      14.56295416      17.82102262 
Ag       9.96583233      14.67608004      16.59607250 
Au      17.47587986      24.91634597      17.19034530 
Ag      21.66520658      10.86502639      14.77742250 
Au      12.93189844      10.79001366      19.54902845 
Au      16.21910625       9.73433735      13.76280460 
Ag      18.08674364       9.74643750      20.51386546 
Au      10.42051982      18.33804142      21.10083084 
Ag      24.10979497      18.26424114      13.35517971 
Au      24.61374495      20.36017104      16.86131989 
Ag      10.20042829      20.46117312      17.57102228 
Au      23.67514648      18.43811558      22.14802080 
Au      10.80028614      18.61687708      12.54277667 
S      19.64249429       9.59771679      14.68310480 
S      15.00706200       9.67921582      19.55139494 
Ag      14.79812001      18.78725374      24.65354954 
Au      19.79899798      18.88745831       9.67276430 
Ag      18.31917017      13.29577950      10.07892876 
Au      16.19718072      13.23816345      24.38535594 
Ag      19.37485963      22.00445791      23.27935804 
Ag      15.31421654      22.21871387      11.24850943 
S      18.59747464      24.13760211      12.74766531 
S      16.11719132      24.03832320      21.72940346 
S      24.24260019      12.78926975      19.43593502 
S      10.38124231      12.98929791      14.90133979 
Ag      12.83605253      13.57745290      11.57100400 
Au      21.88552200      13.21012623      22.72263458 
S       8.95682411      16.16853684      18.19085562 
S      25.58941625      16.03088768      16.14785182 
S      11.29931109      17.19793043      22.97583439 
S      23.26984399      17.12474277      11.36228449 
S      22.91397128      22.58919263      14.10253338 
S      11.80512561      22.71854052      20.36894014 
S      22.25748039      19.46250121      23.72229267 
S      12.29221740      19.65484050      11.03305565 
S      18.90032429       8.86664234      18.45807412 
S      15.39916211       8.98332543      15.81850226 
S      15.93490692      13.35029917       9.63849961 
S      18.54794163      13.22378155      24.63978391 
S      18.46963769      20.36007459      24.79001837 
S      16.17075921      20.58642031       9.69736814 
S      24.24391285      21.25197786      19.03477403 
S      10.45148301      21.57393207      15.42616808 
S      15.11658686      25.07808298      17.25149278 
S      19.81595247      25.19991279      17.15507264 
S      17.03557460      10.39833766      11.64141928 
S      17.44830612      10.27541677      22.76816395 
S      16.07983482      16.94803508      25.50849884 
S      18.54343790      17.03762861       8.93369135 
S      22.19153196      15.23534882      23.88216205 
S      12.49897040      15.70856820      10.48488455 
S      23.79326440      11.98496953      14.65508746 
S      10.86662587      11.92271026      19.69087046 
S      13.82722719      13.28715082      24.16036556 
S      20.78103399      13.24058698      10.23611739 
S      21.65254263      11.06036417      21.77312674 
S      12.88383589      11.34737632      12.48594714 
S      20.75829692      23.49675253      21.97690200 
S      13.97347462      23.71740035      12.60699465 
S      25.16155758      17.12263427      20.84195495 
S       9.27109049      17.32723669      13.80151358 
S      13.79340853      20.94596691      24.17186115 
S      20.82718742      20.94585874      10.27328368 
S      25.59904157      19.44491264      14.89902260 
S       9.09095902      19.51527467      19.53223886 
C      18.96813708      14.48711634      25.89868104 
C      15.59229860      14.64240099       8.38014565 
C      23.50283249      22.90890685      18.78637471 
C      11.24705903      23.20002958      15.73490531 
C      20.70165224       8.63062833      18.73657605 
C      13.57317987       8.99534022      15.62718632 
C      10.66397416      15.48295198      22.83398369 
C      23.87824259      15.39992551      11.51103899 
C       8.16165136      15.11666423      19.47023541 
C      26.33087309      14.93881320      14.87433383 
C      22.89264510      21.18060314      23.84198722 
C      11.71568376      21.39399560      10.95398827 
C      14.81178413      26.24193469      18.64101820 
C      20.09757869      26.29185755      15.70255077 
C      23.99912123      15.39055894      24.15874422 
C      10.67975645      15.85414552      10.28087944 
C      19.75876245      15.98891988       8.04732712 
C      14.88805972      15.91726675      26.44937254 
C      19.79745025      24.98838502      21.49823977 
C      14.96606262      25.20004869      13.04283815 
C      21.32778732      11.52871822      10.61171469 
C      13.24706169      11.57152515      23.87157783 
C      24.84074871      11.15662966      15.92228499 
C      20.07194357       7.87563489      15.17495353 
C      14.67254287       7.92678229      19.12280973 
C      26.34267063      18.24491811      20.00281276 
C       8.18833600      18.47266440      14.74175843 
C      18.92023756      24.39816809      10.95693684 
C      15.84274301      24.31032232      23.52459865 
C      23.48817848      24.08390545      15.00081931 
C      11.19965888      24.20302041      19.47331510 
C      17.39387782      21.43280391       8.62325442 
C      21.02003238      10.04334150      23.16457208 
C      13.52873299      10.31580494      11.11318569 
C      11.96297879      20.82355142      24.15312623 
C      22.64420133      20.71562880      10.17907494 
C       9.21639334      13.37251850      13.53585513 
C      18.42957708       9.27207661      11.26518123 
C      16.00726939       9.19388915      23.11590332 
C       8.54326482      21.00073248      20.45950200 
C      26.15582013      20.93161914      13.98431045 
C      17.21375616      21.20494258      25.82833801 
H      16.69221072      20.43891652      26.41611871 
H      16.48569222      21.76012741      25.23045908 
H      17.74049633      21.89057255      26.50248137 
C      25.38296723      13.12978190      20.83115694 
H      26.35566953      12.68433209      20.59007946 
H      24.96775013      12.65517806      21.72911345 
H      25.50339467      14.20551430      20.99949072 
C       9.81753312      11.18188532      18.37495810 
H       8.92253587      11.80897448      18.27891978 
H       9.52620981      10.17213785      18.68434662 
H      10.33177052      11.14736927      17.40991106 
H      26.57350197      15.55309941      13.99855762 
H      25.64469829      14.13317201      14.58534387 
H      27.25305618      14.51317882      15.28720158 
H      26.76107500      17.70872814      19.14305782 
H      27.13776970      18.48825288      20.71731159 
H      25.85766191      19.16464918      19.66307936 
H      26.63183203      20.59204205      13.05675340 
H      26.89201017      21.46650695      14.59528146 
H      25.30818301      21.58846765      13.74955638 
H      24.26822653      23.57190730      18.36764469 
H      23.18105699      23.27926982      19.76764831 
H      22.63754672      22.85502739      18.11440403 
H      23.62203610      24.89572068      14.27619157 
H      24.45017433      23.85369281      15.47496500 
H      22.76878838      24.38744836      15.76876232 
H      20.21559064      25.38388194      20.56533739 
H      19.90757785      25.73301324      22.29502048 
H      18.73587345      24.76116692      21.35158940 
H      21.18195355      26.36775361      15.55754042 
H      19.68908495      27.28384186      15.92368739 
H      19.63533181      25.88497081      14.79634435 
H      17.95999662      24.53211149      10.44426726 
H      19.45725746      23.54883767      10.52011726 
H      19.52336648      25.30637243      10.84166155 
H      15.14061188      27.24001440      18.33050895 
H      15.34023634      25.92902778      19.54728451 
H      13.73251351      26.25086973      18.83428883 
H      14.79276354      25.95969942      12.27181837 
H      16.03637217      24.96933004      13.09934049 
H      14.62187789      25.57489506      14.01360550 
H      10.20688890      23.96587946      19.07068297 
H      11.86856274      24.47063231      18.64955094 
H      11.11879299      25.03889710      20.17710258 
H      16.84184075      22.09481141       7.94565486 
H      17.92468760      20.66556089       8.04594815 
H      18.11914804      22.01311592       9.19986579 
H      22.95264708      20.90151502       9.14346304 
H      22.93832322      19.70336861      10.47360994 
H      23.10971353      21.45040705      10.84641431 
H      23.33275676      14.78130343      10.78841273 
H      23.71605158      15.00630427      12.52046808 
H      24.94891471      15.39874524      11.27552112 
H      20.05361648      16.51354784       7.13127333 
H      19.26165734      15.04417756       7.79147138 
H      20.63974024      15.78188326       8.66202124 
H      21.24805617      10.92873821       9.69758263 
H      20.72504434      11.08162998      11.40800945 
H      22.37501115      11.56918385      10.93389977 
H      18.93546870       9.65455415      10.37119377 
H      18.00861085       8.28209532      11.05395416 
H      19.12492561       9.21522315      12.11092831 
H      13.27356923       8.07146016      15.11836342 
H      13.23707556       9.86129101      15.04578508 
H      13.12258713       9.03317089      16.62738375 
H      12.67296392      10.04921446      10.48124072 
H      13.97939841       9.41047259      11.53707371 
H      14.27667030      10.85073353      10.51847831 
H      15.80468488      14.22076385       7.39094797 
H      16.20481652      15.53639758       8.54016974 
H      14.53165532      14.91292948       8.44806754 
H       9.61651139      12.93312836      12.61373910 
H       9.08098333      14.45268445      13.41409662 
H       8.25282481      12.90781382      13.77754505 
H      10.38410996      15.21745704       9.43869297 
H      10.44411578      16.90216071      10.05721128 
H      10.14032623      15.54875641      11.18183133 
H       7.34972009      18.76184879      14.09835041 
H       8.72882398      19.36926284      15.06111751 
H      10.73482500      21.40244867      10.46497372 
H      12.43674149      21.95792087      10.34865223 
H      11.63906262      21.84523395      11.94838073 
H      11.56439567      23.61194741      14.76921938 
H      12.12665686      23.10289907      16.38304451 
H      10.51309327      23.86774730      16.19944059 
H      21.14249200       7.76247775      15.36894756 
H      19.78741420       7.21633519      14.34574997 
H      19.49892959       7.60481477      16.07083334 
H      25.18064498      10.19664977      15.51772969 
H      24.30202417      10.99539017      16.86057643 
H      25.70885191      11.79681238      16.12229799 
H      24.17984231      16.39816432      24.55360027 
H      24.56484180      15.26237802      23.23157807 
H      24.30831878      14.63949132      24.89408607 
H      20.04141699      14.69629425      25.80708740 
H      18.75209521      14.05993901      26.88504056 
H      18.39147435      15.40772267      25.75390059 
H      15.37603026      14.96520023      26.69445110 
H      13.98005607      15.71237487      25.87477617 
H      14.63237304      16.45517965      27.36956072 
H      12.18258319      11.62561903      23.61420261 
H      13.37582808      10.99444752      24.79435156 
H      13.79359140      11.09967131      23.04966408 
H      16.36858455       8.16898399      23.25816192 
H      15.28312520       9.21720906      22.29435680 
H      15.53603095       9.54368558      24.04153904 
H      20.61754671       9.11432200      22.74282513 
H      20.22482954      10.55598666      23.71495402 
H      21.85823436       9.81835765      23.83343879 
H      15.64699138       7.45175278      18.95430609 
H      14.06379098       7.83293298      18.21934047 
H      22.20147972      21.74157526      24.48409228 
H      22.94913101      21.66511312      22.86265970 
H      23.88553377      21.15666620      24.30429735 
H      11.57423928      21.54730513      23.42736375 
H      11.60896710      21.07779897      25.15949319 
H      11.62379718      19.81655282      23.89218570 
H      15.27183280      25.23644430      23.65724850 
H      16.82450647      24.41257234      24.00341973 
H      15.29302781      23.47277976      23.96898787 
H       7.86533829      21.56653162      19.80910617 
H       9.39569914      21.62714673      20.74825275 
H       7.24733115      14.68003599      19.05261188 
H       7.90158529      15.76263597      20.31789893 
H       8.82951355      14.31819567      19.81240353 
H       9.57428586      15.49544818      22.94326045 
H      11.11613472      14.90291129      23.64752981 
H      10.94489565      15.03234095      21.87470884 
H      21.18076121       8.43738261      17.76964162 
H      20.84531233       7.76313524      19.39100470 
H      21.15783708       9.51345320      19.19796668 
H      14.16388028       7.45116634      19.96878598 
H       7.99926915      20.67343579      21.35284205 
H       7.81931637      17.93243549      15.62174175 
