322
Properties=species:S:1:pos:R:3 i=246 optimized=T E=-4437.4952588492 pbc="F F F" jobid=102_44-Ag-69_6-000010-PBE
Au      16.87962476      16.99806482      15.86790063 
Ag      17.68747871      16.99563811      18.66994916 
Ag      18.64582494      14.92351684      16.84607748 
Ag      15.90113764      14.96487900      17.66068494 
Ag      19.54955028      17.77424678      16.58426033 
Ag      14.98272626      17.75743913      17.93131116 
Au      17.27439004      19.51000532      17.27730766 
Ag      17.85360015      15.02384646      13.93339273 
Ag      16.65485409      14.97118539      20.51363276 
Au      18.19056614      19.48786889      20.17810325 
Ag      16.37595775      19.57174438      14.43046179 
Ag      19.45458496      14.97294841      19.76721294 
Ag      15.05788782      15.02997467      14.65846444 
Ag      18.67606977      17.86223975      13.67763047 
Ag      15.84342087      17.79322966      20.84291285 
Au      20.41683942      17.72987938      19.45767404 
Ag      14.13034425      17.79278408      15.09538110 
Ag      21.34123948      15.74269963      17.58641180 
Au      13.13121161      15.77639377      16.85291490 
Ag      13.94698675      15.73694381      19.75637378 
Ag      20.56690008      15.77026215      14.73221721 
Au      15.41228705      20.27234822      19.38781430 
Au      19.11930810      20.35443939      15.14506442 
Ag      20.01055034      20.33481088      17.94282680 
Au      14.47891244      20.38512164      16.57991107 
Ag      17.65392172      12.79356727      18.69816734 
Ag      16.88844372      12.81018757      15.71110125 
Au      16.01743415      17.10055976      12.93472541 
Ag      18.50728395      17.00728553      21.56714139 
Ag      19.66832854      12.97503954      15.04361947 
Ag      14.82872979      12.94386130      19.36193477 
Ag      13.13605579      18.48862757      19.99814408 
Ag      21.38431929      18.54377418      14.53558924 
Ag      20.40767365      12.93294156      17.85874943 
Au      14.16482760      13.03342399      16.52211496 
Ag      22.22102819      18.58723673      17.22317086 
Ag      12.30107255      18.60197495      17.25575219 
Ag      17.74182757      22.04128850      18.63981292 
Ag      16.80089347      22.04452266      15.97268014 
Ag      20.45388610      19.23648948      21.98264631 
Au      14.18962178      19.32409811      12.60658435 
Ag      18.69788575      14.29740128      22.49198803 
Ag      15.78381162      14.41199717      11.92398665 
Ag      17.24917374      19.34901779      11.58779804 
Ag      17.16052226      19.20559622      22.96209326 
Ag      18.24491563      16.22833471      11.28666843 
Ag      16.30045395      16.07185558      23.17503227 
Ag      21.31471877      16.27138682      21.74098573 
Ag      13.18871233      16.44448813      12.75494528 
Ag      23.22333266      16.48552735      15.56442035 
Ag      11.28668785      16.48906103      18.92591678 
Au      22.33069859      13.75665796      15.86149084 
Au      12.15750612      13.74464174      18.49558521 
Ag      14.96034872      22.79580557      18.19446348 
Ag      19.56991402      22.80520014      16.46325681 
Ag      17.74822400      12.37948759      12.94492224 
Ag      16.76232972      12.27428876      21.41119474 
Ag      20.10052101      14.21903536      12.42454052 
Ag      14.42931458      14.11764505      22.00759366 
Ag      21.82588106      21.10537852      15.75075208 
Ag      12.70312227      21.06677183      18.76745724 
Ag      13.62875768      17.02460652      22.40332499 
Au      20.91461694      17.07673303      12.15868126 
Au      22.24192426      19.88735871      19.72599063 
Ag      12.27338866      19.93795638      14.71066085 
Au      19.97536866      21.71125082      20.40363157 
Ag      14.57810123      21.80799371      14.16659669 
Ag      15.73876300      10.81637111      17.47887735 
Ag      18.69816376      10.80839672      16.87388873 
Au      22.13278234      14.17042492      19.86247051 
Ag      12.37831930      14.19705903      14.47966026 
Au      17.00434895      21.68884293      21.40759736 
Ag      17.54715526      21.81203041      13.16638376 
Au      19.73657006      12.26511094      20.61086606 
Ag      14.77277557      12.29141226      13.78532946 
Ag      23.16073556      16.91332551      19.43088350 
Ag      11.33907296      16.92724957      15.06046696 
Ag      19.99668619      20.17253976      12.52346317 
Ag      14.44727482      20.19504424      21.97133256 
Ag      20.45106308      23.06501320      13.58494282 
Au      13.89758799      23.21973074      21.05682281 
Ag      24.56222309      14.64210026      17.81580746 
Ag       9.91837720      14.66934940      16.62740084 
Ag      17.28100821      24.75002312      17.31553210 
Au      21.47631575      10.68102993      14.84606340 
Au      12.99496592      10.68053038      19.57350638 
Au      16.22386248       9.77453335      13.64559051 
Au      18.23464475       9.70664324      20.67742517 
Ag      10.46077361      18.23781621      21.12952999 
Ag      24.06362534      18.31540324      13.39859207 
Au      24.48803149      20.45787140      16.91550682 
Au      10.02679867      20.45108825      17.64706352 
Ag      23.68388942      18.41656762      21.96559183 
Au      10.80972874      18.55722086      12.47061138 
S      19.42540499       9.55410882      14.71938111 
S      15.02755098       9.51482973      19.60576810 
Au      14.66639217      18.70769707      24.74871262 
Au      19.83412032      18.88306212       9.77113876 
Ag      18.37576185      13.31011823      10.10156843 
Ag      16.22458507      13.13262011      24.28422254 
Au      19.27483878      21.88659586      23.45468887 
Ag      15.28369035      22.10676491      11.26013825 
S      18.42110066      24.10402517      12.76776419 
S      16.00081737      23.87081455      21.89651824 
S      24.17384089      12.89044703      19.46403953 
S      10.30898971      12.93349215      14.99943560 
Au      12.70899384      13.51511367      11.59240211 
Ag      21.72579139      13.40056316      22.78552128 
S       8.92015308      16.17846664      18.23521063 
S      25.59634255      16.12123572      16.19555838 
S      11.21544553      17.00934730      23.07215784 
S      23.27622950      17.14482494      11.41839699 
S      22.78251253      22.78064734      14.15445811 
S      11.71023931      22.76534532      20.34098959 
S      22.26544233      19.30030857      23.69292444 
S      12.32750247      19.55057910      10.96123056 
S      19.00815734       8.93753418      18.60264590 
S      15.42548867       8.98066656      15.69841138 
S      16.00682565      13.38047787       9.66437957 
S      18.59919855      13.22830702      24.74247155 
S      18.39154923      20.24701034      24.89616537 
S      16.14799648      20.52336131       9.67939733 
S      24.13126371      21.34840892      19.08944115 
S      10.37773392      21.40220912      15.50758588 
S      14.89590673      25.12448253      17.38198820 
S      19.66703546      25.13803682      17.26193370 
S      17.02401235      10.41918645      11.51746005 
S      17.42050503      10.27752075      22.82905966 
S      15.87083129      16.84756857      25.54204554 
S      18.65851607      17.02645106       8.92346354 
S      22.04614986      15.46271147      23.97413717 
S      12.48261087      15.58657948      10.50055804 
S      23.52836153      11.85848987      14.81400504 
S      10.98845795      11.93253035      19.66612890 
S      13.79180067      13.10883707      24.16673849 
S      20.79863963      13.22319009      10.27333836 
S      21.63284708      11.19316699      21.82005765 
S      12.80933881      11.33936071      12.48705543 
S      20.61012387      23.35008731      22.11815074 
S      13.87910951      23.57105176      12.59250751 
S      25.27762173      17.10055486      20.69987296 
S       9.27480766      17.25346994      13.70739142 
S      13.65982363      20.78926446      24.25205972 
S      20.80833232      20.97880994      10.31877368 
S      25.47007762      19.56073881      14.94900642 
S       9.05842928      19.51325761      19.60233768 
C      18.91534657      14.52850411      26.00025751 
C      15.64721901      14.69580153       8.43514456 
C      23.37392407      23.00177475      18.86808099 
C      11.18218521      23.02907198      15.76703509 
C      20.83087709       8.80849196      18.79201915 
C      13.60153393       8.88691606      15.49774859 
C      10.65973408      15.28168165      22.78620974 
C      23.85970438      15.41817272      11.63623429 
C       8.13559322      15.08560927      19.48805633 
C      26.33131897      15.00654649      14.93167788 
C      22.83713420      21.03156816      23.92095427 
C      11.75389690      21.28306914      10.78523537 
C      14.70631524      26.27546509      18.80714422 
C      19.85373369      26.28788323      15.83467598 
C      23.86220892      15.63262715      24.20283520 
C      10.68101046      15.75960934      10.18774611 
C      19.95077113      16.02384308       8.09052097 
C      14.61187573      15.82397617      26.40015403 
C      19.64816458      24.86016880      21.72471445 
C      14.80303867      25.08366941      13.07251489 
C      21.29638546      11.50087723      10.67847423 
C      13.23825662      11.41212254      23.72840416 
C      24.54478218      11.07769857      16.12923083 
C      19.76010916       7.79821007      15.14066963 
C      14.66063186       7.77683507      19.14026884 
C      26.39145820      18.22221934      19.76390901 
C       8.14984594      18.37201061      14.62962502 
C      18.73420785      24.36146880      10.97479669 
C      15.75640453      24.04669198      23.70535657 
C      23.25730969      24.28276845      15.10094280 
C      11.18867348      24.24439943      19.38684293 
C      17.35614285      21.38835541       8.60055734 
C      20.99486654      10.14901964      23.18680482 
C      13.42034571      10.33464406      11.07642409 
C      11.83879114      20.57498955      24.32154800 
C      22.63293402      20.77949696      10.29461859 
C       9.11668175      13.23363787      13.63486626 
C      18.38569844       9.24387732      11.15909300 
C      16.06017554       9.08848419      23.14092483 
C       8.50627417      20.97840777      20.55828478 
C      25.99514195      21.05220774      14.02136551 
C      17.22167826      21.09295679      26.02795850 
H      16.74834546      20.31177492      26.63585274 
H      16.44603660      21.64160824      25.48690184 
H      17.78710529      21.77463563      26.67296298 
C      25.33832500      13.22974612      20.83901690 
H      26.29926281      12.76484499      20.58726069 
H      24.93443475      12.77071479      21.74994797 
H      25.48067498      14.30660724      20.98571077 
C       9.89100379      11.15574396      18.41419320 
H       9.01957031      11.80942353      18.28578321 
H       9.57071885      10.18149379      18.80046549 
H      10.39291959      11.03806565      17.44930239 
H      26.62990416      15.61868661      14.07184517 
H      25.62193589      14.23882049      14.60391105 
H      27.21981789      14.52826607      15.35946668 
H      26.71539249      17.70802980      18.85161349 
H      27.25936380      18.44126616      20.39645671 
H      25.89385474      19.15879019      19.49444999 
H      26.46151593      20.71421929      13.08837848 
H      26.73539820      21.59266372      14.62242331 
H      25.13845068      21.70158351      13.79998303 
H      24.11334212      23.66377381      18.40400036 
H      23.10912666      23.37432521      19.86496494 
H      22.46837870      22.94876444      18.25180812 
H      23.30176827      25.13731812      14.41628284 
H      24.25046848      24.11268776      15.53404454 
H      22.54315650      24.49012094      15.90556548 
H      20.10239941      25.32579574      20.84193427 
H      19.71968244      25.54001058      22.58192706 
H      18.59794684      24.62757023      21.51831276 
H      20.92478784      26.40354405      15.63078804 
H      19.43076818      27.25985495      16.11141228 
H      19.35606480      25.90610651      14.93656360 
H      17.76882657      24.44126881      10.46031376 
H      19.31271606      23.53454564      10.54833972 
H      19.29195627      25.29703963      10.85154977 
H      15.07896362      27.26205032      18.51008819 
H      15.24848806      25.92140944      19.68948172 
H      13.63947992      26.34633465      19.04971587 
H      14.60183781      25.85237502      12.31729271 
H      15.88187529      24.89596598      13.12728401 
H      14.43953463      25.42228333      14.04959369 
H      10.22308797      24.00846712      18.92270145 
H      11.91737921      24.49177308      18.60729688 
H      11.06855818      25.09003004      20.07301092 
H      16.81069848      22.09017336       7.95967338 
H      17.84998153      20.62840320       7.98263579 
H      18.11628656      21.92420119       9.17538799 
H      22.97915121      20.88530642       9.26022226 
H      22.93925874      19.80291124      10.68247935 
H      23.06133794      21.57519144      10.91557210 
H      23.35105104      14.79320088      10.89196483 
H      23.62898818      15.04055706      12.63941451 
H      24.94254177      15.39743230      11.46825248 
H      20.30660955      16.57297513       7.21186380 
H      19.48517590      15.08155384       7.77454063 
H      20.78811038      15.80303728       8.75925727 
H      21.15972275      10.87129135       9.79207585 
H      20.72013456      11.09533559      11.51616465 
H      22.35750225      11.51606875      10.95325663 
H      18.90167237       9.60439612      10.26148608 
H      17.95051563       8.25832373      10.95897317 
H      19.08511654       9.18216173      12.00002824 
H      13.35707877       8.02258802      14.87012379 
H      13.20019104       9.79928912      15.04225311 
H      13.15711089       8.75757676      16.49262742 
H      12.57820208      10.14410830      10.40184944 
H      13.79944971       9.38935388      11.48312427 
H      14.22765690      10.84157713      10.53762315 
H      15.84055499      14.28726080       7.43658143 
H      16.26780401      15.58458436       8.59427669 
H      14.58810868      14.96554847       8.52701252 
H       9.50604662      12.74029418      12.73598658 
H       8.98697016      14.30417292      13.44255089 
H       8.15186196      12.79239172      13.91028437 
H      10.39292824      15.04938919       9.40478193 
H      10.50947508      16.78665287       9.84248946 
H      10.09139360      15.57979895      11.09117255 
H       7.34084847      18.67885832      13.95723934 
H       8.67267325      19.25694048      15.00443141 
H      10.77160028      21.26788424      10.29940140 
H      12.47697359      21.80487154      10.14542268 
H      11.68541094      21.79438186      11.75016712 
H      11.45997374      23.41532454      14.77836467 
H      12.08853448      22.93574629      16.37802342 
H      10.46927465      23.70885962      16.24539490 
H      20.50743437       7.38654409      14.45450833 
H      18.80763715       7.26830375      15.01341147 
H      20.09141264       7.68504745      16.17744064 
H      24.86341466      10.09083980      15.77480292 
H      23.99347633      10.98308219      17.06936858 
H      25.42274410      11.71471884      16.29234157 
H      24.05861649      16.65580756      24.54714861 
H      24.41355045      15.45262409      23.27526963 
H      24.18370478      14.91693659      24.96785432 
H      19.96649803      14.83096831      25.92013050 
H      18.72726928      14.09482985      26.98913442 
H      18.27079947      15.40231509      25.85407349 
H      15.09999383      14.88801369      26.70009882 
H      13.76275483      15.59139470      25.75040901 
H      14.26911384      16.36505036      27.28871785 
H      12.17497095      11.46353637      23.46702400 
H      13.36771086      10.75970769      24.59925745 
H      13.79396811      11.00974395      22.87529504 
H      16.49609450       8.09533622      23.29739115 
H      15.35987622       9.06177725      22.29879850 
H      15.54502416       9.40862195      24.05405407 
H      20.53354829       9.25212605      22.75614380 
H      20.25192105      10.67868793      23.79248100 
H      21.85210649       9.86935489      23.81088181 
H      15.61474644       7.23804263      19.19920385 
H      14.27296778       7.70018502      18.12003529 
H      22.11136810      21.54567853      24.56334710 
H      22.91520060      21.56704800      22.96991277 
H      23.81629510      21.01079277      24.41264261 
H      11.39020878      21.39061140      23.74241769 
H      11.52084392      20.64261362      25.36807837 
H      11.52597558      19.61135502      23.90723323 
H      15.24559912      24.99871669      23.89118509 
H      16.74888541      24.05671771      24.17280501 
H      15.15909054      23.21963954      24.10452702 
H       7.77947838      21.53444373      19.95492292 
H       9.35016238      21.62585890      20.82340003 
H       7.24083120      14.63029877      19.04839790 
H       7.84189691      15.70740178      20.34286617 
H       8.81991227      14.30064399      19.82768442 
H       9.57243785      15.23616784      22.91260215 
H      11.14998440      14.64394924      23.53171254 
H      10.93312358      14.93139617      21.78357023 
H      21.27809875       8.76633437      17.79067560 
H      21.06391583       7.88746759      19.33870109 
H      21.23657273       9.66995474      19.33511688 
H      13.94762051       7.34577531      19.85078250 
H       8.01684754      20.61237589      21.46872901 
H       7.74277032      17.80422739      15.47486420 
