322
Properties=species:S:1:pos:R:3 i=367 optimized=T E=-4286.347798076 pbc="F F F" jobid=102_44-Ag-30_4-000002-PBE
Au      16.88388605      17.06833434      15.88405841 
Au      17.69136014      17.02536404      18.75109077 
Ag      18.66973683      14.94562261      16.90920645 
Au      15.94530440      14.99077182      17.67570461 
Ag      19.54664077      17.79292611      16.67511676 
Au      15.02218780      17.80876252      18.00736375 
Au      17.27828448      19.54020902      17.37476052 
Au      17.89832447      15.11056310      13.97091593 
Au      16.66402970      15.01640977      20.66456283 
Au      18.22016404      19.55186803      20.30391726 
Au      16.30879842      19.64896277      14.52120874 
Au      19.43205524      14.93980586      19.83396614 
Au      15.08317071      15.05404751      14.69503492 
Au      18.64033868      17.97098848      13.66034752 
Ag      15.87485177      17.87603186      20.95830054 
Au      20.42436976      17.75973123      19.58030032 
Ag      14.11667370      17.84002623      15.13757454 
Au      21.37293032      15.71276772      17.69468385 
Au      13.15488137      15.77382464      16.96963962 
Au      13.92182709      15.74186176      19.84392965 
Au      20.57688723      15.80421843      14.77885666 
Ag      15.43371862      20.32807454      19.49386721 
Au      19.13624104      20.38822529      15.28277979 
Au      20.06465818      20.38810368      18.11444694 
Ag      14.49864191      20.44289562      16.71852595 
Ag      17.68550958      12.75490211      18.79959956 
Au      16.87464111      12.76378278      15.74298562 
Au      15.95875164      17.18829632      12.92585374 
Au      18.53435444      17.04832460      21.72382809 
Au      19.68162573      12.99702922      15.10025354 
Au      14.88113641      12.98820068      19.42251276 
Au      13.18276746      18.53538240      20.12717311 
Au      21.38090756      18.62134469      14.61998177 
Ag      20.43187176      12.89929360      17.92513660 
Au      14.11261977      13.03212704      16.64941053 
Au      22.21353038      18.59484582      17.36667043 
Au      12.34207908      18.63466713      17.36890829 
Au      17.74618735      22.07233435      18.76870000 
Au      16.75688293      22.13496422      16.13565175 
Ag      20.43179812      19.27824948      22.12321338 
Ag      14.13379527      19.45061817      12.64955241 
Ag      18.81247890      14.29854252      22.60972186 
Au      15.77423322      14.47285604      11.98113902 
Au      17.21190199      19.51467853      11.69899983 
Ag      17.22295206      19.27206694      23.10032470 
Ag      18.23811764      16.25944528      11.26700694 
Au      16.30007920      16.13513511      23.29694570 
Au      21.33763099      16.35216461      21.87540730 
Au      13.14116151      16.48497216      12.84024640 
Au      23.20018727      16.54341023      15.55757925 
Ag      11.29133133      16.51750084      19.07215773 
Au      22.37482914      13.75950426      15.95006257 
Ag      12.09620427      13.71227048      18.62878837 
Ag      14.93804484      22.85835685      18.34938012 
Ag      19.59890916      22.84597819      16.57114046 
Au      17.83811062      12.47463678      12.92682293 
Au      16.72364870      12.34048687      21.57906578 
Ag      20.17049858      14.28417452      12.44699866 
Au      14.32353618      14.17553265      22.09556720 
Ag      21.86169217      21.13222209      15.95988931 
Ag      12.69252096      21.09934720      18.92065730 
Ag      13.64138550      17.07991516      22.54747735 
Au      20.88279093      17.18455874      12.17966265 
Ag      22.32253818      19.87630752      19.93165857 
Au      12.34473578      20.04128172      14.83425527 
Ag      20.01740303      21.78802913      20.55263656 
Ag      14.56265198      21.90866505      14.26248580 
Au      15.72323701      10.83233621      17.58565192 
Au      18.69321392      10.84844030      16.88804138 
Au      22.08690868      14.08948484      20.02150881 
Au      12.40451584      14.22793818      14.59546567 
Au      16.98262838      21.71505176      21.52936415 
Au      17.49736519      21.94118988      13.36681066 
Au      19.77212714      12.23073776      20.69214674 
Au      14.77761846      12.27529283      13.88785230 
Au      23.20101082      16.86306986      19.50418008 
Au      11.30881744      16.93642174      15.25143807 
Au      20.05054346      20.37897370      12.65467276 
Ag      14.44583154      20.20265297      22.10593470 
Au      20.62302444      23.36142049      13.75729086 
Au      13.91004340      23.25763566      21.17688250 
Au      24.74369456      14.57117216      17.90208695 
Au       9.76308935      14.56258733      16.78001693 
Au      17.26681267      24.91404142      17.49907917 
Au      21.43491625      10.65916274      14.82923834 
Ag      13.00530451      10.80451188      19.66164115 
Ag      16.50676411       9.88846360      13.91153040 
Ag      18.08167037       9.81896918      20.45542611 
Au      10.41693510      18.37432742      21.20331116 
Au      24.08684937      18.43016598      13.41366836 
Au      24.51128966      20.43584226      17.01219611 
Au      10.08228602      20.49873064      17.67905029 
Au      23.70000333      18.53792029      22.24658423 
Au      10.91352165      18.70130183      12.49305333 
S      19.41257309       9.47518043      14.67099459 
S      15.04895557       9.52949477      19.66481579 
Au      14.66621045      18.85707166      24.87287100 
Ag      19.80909556      18.95684105       9.99000343 
Au      18.46216411      13.47965418      10.00244706 
Au      16.13375361      13.23204825      24.53296101 
Ag      19.26247043      21.94649348      23.47219463 
Ag      15.29841277      22.23958118      11.36248982 
S      18.52769578      24.11766440      12.96700268 
S      16.01635465      23.90839793      22.01952939 
S      24.20066385      12.96729646      19.55095363 
S      10.33821036      13.02130624      15.08172987 
Au      12.67368705      13.44780646      11.67044697 
Au      21.83894562      13.21905264      22.94176610 
S       8.93608427      16.02521959      18.42281453 
S      25.50610393      16.11696751      16.29176267 
S      11.18594504      17.21635555      23.11840665 
S      23.23476295      17.32740887      11.48323431 
S      22.82308741      22.86686438      14.41683480 
S      11.71087619      22.83267329      20.47301651 
S      22.26428850      19.52884280      23.81984935 
S      12.33068825      19.72132837      10.91182274 
S      19.06902676       8.94070874      18.45590905 
S      15.60174266       8.91807654      15.90330324 
S      16.10224018      13.49510989       9.76175557 
S      18.46960500      13.23282722      24.86063006 
S      18.44428027      20.30184902      25.02729203 
S      16.13512598      20.58828048       9.80241590 
S      24.21998310      21.36216121      19.17471511 
S      10.45121031      21.49027398      15.55137997 
S      14.91972626      25.22487347      17.55031079 
S      19.61918742      25.15744473      17.47594678 
S      17.09296857      10.53701491      11.64325654 
S      17.46101489      10.33503130      22.75054610 
S      15.90460466      16.98709680      25.58850205 
S      18.50701027      17.22526723       8.96011639 
S      22.07625394      15.31365308      23.97962210 
S      12.41812134      15.55748964      10.66333625 
S      23.47503345      11.85367667      14.88687053 
S      10.88920761      11.92818759      19.86803850 
S      13.76019854      13.24970526      24.26726263 
S      20.82955510      13.48115491      10.18448862 
S      21.56727446      11.07671108      21.98782735 
S      12.94249393      11.28375699      12.57482270 
S      20.65657686      23.48825191      22.21054985 
S      13.89553745      23.70923389      12.69184039 
S      25.15399404      17.20994413      20.92743426 
S       9.42344155      17.36991509      13.77153053 
S      13.67451025      20.93978718      24.37907742 
S      20.80362859      21.13511443      10.47369376 
S      25.46134473      19.54256334      15.01211389 
S       9.07880456      19.53819755      19.61132024 
C      18.84507546      14.50324993      26.12916782 
C      15.66899185      14.77457720       8.52477738 
C      23.43974822      23.00672111      18.95790982 
C      11.23060222      23.11826636      15.85707669 
C      20.88382488       8.91860814      18.72544815 
C      13.79862254       8.75434518      15.60552949 
C      10.56928080      15.50030883      22.92261107 
C      23.85932719      15.61070153      11.63235122 
C       8.20533467      14.94996054      19.71865972 
C      26.27956827      15.10291588      14.97297604 
C      22.85705152      21.25591465      23.99554163 
C      11.73813046      21.45509877      10.81669550 
C      14.69246268      26.38412641      18.95996814 
C      19.89953197      26.36985551      16.12182030 
C      23.87725774      15.53528928      24.25152585 
C      10.61579130      15.76801431      10.39510912 
C      19.70910844      16.25135005       7.96942975 
C      14.69071456      15.95366862      26.49507037 
C      19.68055365      24.96947489      21.72937682 
C      14.86715429      25.17520343      13.22365136 
C      21.37397757      11.74816118      10.45540684 
C      13.20208820      11.53804834      23.91696363 
C      24.45634759      11.03870039      16.20790329 
C      19.76015298       7.74751919      15.17102284 
C      14.64276771       7.82263587      19.11760373 
C      26.32822784      18.29481985      20.03287565 
C       8.24968685      18.45979642      14.66029279 
C      18.79651396      24.34692831      11.16815137 
C      15.75369310      24.11866852      23.82197414 
C      23.38469156      24.32180730      15.38439928 
C      11.20838504      24.31652996      19.51661582 
C      17.38956387      21.39187996       8.73189494 
C      20.90302039      10.05603584      23.35825104 
C      13.59935333      10.29615424      11.17702122 
C      11.85169013      20.74585442      24.45179219 
C      22.63471732      21.03192463      10.49060434 
C       9.15637735      13.37773864      13.72534202 
C      18.51214647       9.50099260      11.12820851 
C      16.03666955       9.26827851      23.18279287 
C       8.49128592      21.00113593      20.54653226 
C      26.04429538      21.03767194      14.12711249 
C      17.27257269      21.15115652      26.15901391 
H      16.78803164      20.38203207      26.77287141 
H      16.50184828      21.70591688      25.61683865 
H      17.83940772      21.83330700      26.80259071 
C      25.35382603      13.29722452      20.93689489 
H      26.33436758      12.88462485      20.67160598 
H      24.95694920      12.78230675      21.82078499 
H      25.44253783      14.37145620      21.13195841 
C       9.79635890      11.12191999      18.62523316 
H       8.93213466      11.77614403      18.45724237 
H       9.45862813      10.16041908      19.02775010 
H      10.30702069      10.96762185      17.67007169 
H      26.48922387      15.77218661      14.12930241 
H      25.61680938      14.29300862      14.65034098 
H      27.21845612      14.68929721      15.35870848 
H      26.73471626      17.72005116      19.19240535 
H      27.13162590      18.56645174      20.72742967 
H      25.84083057      19.20003997      19.65886554 
H      26.54273706      20.70929420      13.20774668 
H      26.76548061      21.55132227      14.77365780 
H      25.20917264      21.70547648      13.88584981 
H      24.16023051      23.68759858      18.49247804 
H      23.17199761      23.37266778      19.95701365 
H      22.52978995      22.94074795      18.34886245 
H      23.49022960      25.18163247      14.71363350 
H      24.36164691      24.07044612      15.81557445 
H      22.68229412      24.55836491      16.19036069 
H      20.10482017      25.38210271      20.80678975 
H      19.76492080      25.70646609      22.53635269 
H      18.62591687      24.72599795      21.56235143 
H      20.98178856      26.44189306      15.96035602 
H      19.51025666      27.34463648      16.43536663 
H      19.41710578      26.05137894      15.19250157 
H      17.81271499      24.42479176      10.68860816 
H      19.36322393      23.50886985      10.74571749 
H      19.35266034      25.28084531      11.02400003 
H      15.10703656      27.36059538      18.68653084 
H      15.17609656      26.01015301      19.86786702 
H      13.61479232      26.48128501      19.13866954 
H      14.79074873      25.93853455      12.44084635 
H      15.91983760      24.92543525      13.39404250 
H      14.43416507      25.55808639      14.15510621 
H      10.23801914      24.09395024      19.05586770 
H      11.93787004      24.55001693      18.73364256 
H      11.10349272      25.16740525      20.19879302 
H      16.86252617      22.07121471       8.05145173 
H      17.89090054      20.60439398       8.15515823 
H      18.13324341      21.94769415       9.30937737 
H      22.98522208      21.22607754       9.46986863 
H      22.98383979      20.04643435      10.81406526 
H      23.02044644      21.80085631      11.16990632 
H      23.36126314      15.01352191      10.85873929 
H      23.63116152      15.19452760      12.62026328 
H      24.94216525      15.62137490      11.46409770 
H      19.98577771      16.83904893       7.08686006 
H      19.22162057      15.31887452       7.65831635 
H      20.60569147      16.00251975       8.54463501 
H      21.19388561      11.16348506       9.54646876 
H      20.86196618      11.29123882      11.30777761 
H      22.45089052      11.78039506      10.66014355 
H      18.99205853       9.97735903      10.26601524 
H      18.11320005       8.52360941      10.83086117 
H      19.22837822       9.37267487      11.94710696 
H      13.63886079       7.93554752      14.89393932 
H      13.37274808       9.67894954      15.20141538 
H      13.30746202       8.50980230      16.55519095 
H      12.75668811      10.05498238      10.51862329 
H      14.03111942       9.37589836      11.58855332 
H      14.36997839      10.84148030      10.62358934 
H      15.87374803      14.35892469       7.53106181 
H      16.24921172      15.69293083       8.67385409 
H      14.59748813      14.98456605       8.62947726 
H       9.54072016      12.88805466      12.82181831 
H       9.05900577      14.45578980      13.55723476 
H       8.18294171      12.95271452      13.99675938 
H      10.31037782      15.08867049       9.59099994 
H      10.45046380      16.80999746      10.09361737 
H      10.04366578      15.55749313      11.30296261 
H       7.48783477      18.79210085      13.94561747 
H       8.75277025      19.32805419      15.09645037 
H      10.74190970      21.46033597      10.36094150 
H      12.43938546      22.00740216      10.17817393 
H      11.69973274      21.92770405      11.80273848 
H      11.55651514      23.51247132      14.88612019 
H      12.10187249      23.02605695      16.51756398 
H      10.48402867      23.78482953      16.30286400 
H      20.68873798       7.39748457      14.70995679 
H      18.91763738       7.14362761      14.81099216 
H      19.81000012       7.66417751      16.26403545 
H      24.82275648      10.08253124      15.81723094 
H      23.86172718      10.87522885      17.11139590 
H      25.30038177      11.69628468      16.44949538 
H      24.03200531      16.56854242      24.58646731 
H      24.45071174      15.35843290      23.33747486 
H      24.18936263      14.83408761      25.03400926 
H      19.92646251      14.68496246      26.09648951 
H      18.56396439      14.10924588      27.11236674 
H      18.31217818      15.44023002      25.93488568 
H      15.18407590      15.00391085      26.73867726 
H      13.79832814      15.75238209      25.89511084 
H      14.41554362      16.48507401      27.41327977 
H      12.14822037      11.59180361      23.61891977 
H      13.29890632      10.94304259      24.83243650 
H      13.78482691      11.08789364      23.10801897 
H      16.42938967       8.26702383      23.39744849 
H      15.31716046       9.21185963      22.35835776 
H      15.56062048       9.67422188      24.08246249 
H      20.46490892       9.15093186      22.92100596 
H      20.13610923      10.59225680      23.92588586 
H      21.74283479       9.78992244      24.01061522 
H      15.18644734       7.60520147      18.18870730 
H      13.56755035       7.69775457      18.96020438 
H      22.14316544      21.77989711      24.64369063 
H      22.91427529      21.77056235      23.03188887 
H      23.84435269      21.23833419      24.46989100 
H      11.41495858      21.58500061      23.89736298 
H      11.53562179      20.78688652      25.50015483 
H      11.52301411      19.80247285      24.00513699 
H      15.21957974      25.06273099      23.98154742 
H      16.74138027      24.16742746      24.29728898 
H      15.17327268      23.28779516      24.23767491 
H       7.78727835      21.54812007      19.90876587 
H       9.32616713      21.65080128      20.83460497 
H       7.28167391      14.50556302      19.33143787 
H       7.97069791      15.59227689      20.57647580 
H       8.90166428      14.16128684      20.02688395 
H       9.47569214      15.50052079      22.98302870 
H      10.98849285      14.91257037      23.74835603 
H      10.89828215      15.06368610      21.97228052 
H      21.38063018       8.83914778      17.74987748 
H      21.12797194       8.04062909      19.33550252 
H      21.22740198       9.82395611      19.23808575 
H      14.97445797       7.13944759      19.90892979 
H       7.97183025      20.63693477      21.44049576 
H       7.78562035      17.86536568      15.45618490 
