646
Properties=species:S:1:pos:R:3 i=109 optimized=T E=-10152.7206502139 pbc="F F F" jobid=246_80-Ag-60_2-000008-PBE
Ag      21.87010717      20.19187621      20.91934924 
Ag      24.72256099      20.17477085      21.81743412 
Au      20.47163356      22.71175140      20.45717461 
Au      19.70619269      20.93846770      22.77120214 
Ag      19.96086471      18.14422334      21.87571493 
Ag      21.13482616      23.48661804      23.18345870 
Ag      20.34671912      21.76001978      25.43595913 
Ag      20.66248380      18.93103018      24.60892779 
Au      20.87841903      16.14263286      23.73001340 
Au      21.78162881      16.12127220      20.91831969 
Ag      22.68819030      16.09022759      18.09433404 
Ag      23.06544971      18.89604903      17.22244454 
Ag      23.33578651      21.70182129      16.34418845 
Ag      22.62875697      23.45887443      18.61942660 
Ag      21.84495768      25.19181035      20.86923626 
Ag      23.33458077      22.67654479      21.33676572 
Ag      22.58921174      20.95839530      23.63527258 
Ag      22.84152221      18.16554904      22.78559618 
Au      23.73457077      18.17489374      19.99162199 
Ag      24.08548694      20.92255956      19.09289110 
Ag      20.79892431      14.00397095      19.04069614 
Au      21.74738146      14.04041678      16.22354603 
Au      22.10475456      16.83844997      15.27575432 
Au      22.38895978      19.70127705      14.36260904 
Ag      22.64324913      22.50202850      13.53623097 
Au      21.93671177      24.31710397      15.86534103 
Ag      21.18123712      26.07457631      18.16150963 
Ag      20.50335392      27.80442113      20.50307709 
Ag      25.38593199      22.44015879      14.41326386 
Au      24.77955917      24.20681709      16.74307100 
Ag      24.02589668      25.93878696      18.99430887 
Au      23.26321277      27.64425323      21.26392839 
Au      22.55039304      26.01874134      23.60455334 
Ag      21.75029573      24.32857202      25.86559410 
Au      20.90808457      22.60142360      28.10352696 
Au      21.26332275      19.70056142      27.35949470 
Ag      21.58379923      16.93945283      26.48687460 
Ag      21.79284020      14.10498575      25.58150863 
Au      22.75000832      14.01584853      22.81641293 
Au      23.56824580      14.02510826      19.99364716 
Ag      24.46872341      14.01992905      17.12129695 
Au      24.93314429      16.83147509      16.22045718 
Ag      25.13278654      19.64026201      15.35711108 
Ag      23.56210571      18.97695377      25.56493996 
Ag      23.71999008      16.17512907      24.65839757 
Au      24.75300173      16.10185133      21.89871936 
Au      25.46644499      16.08688944      19.04810505 
Ag      25.97760833      18.86237103      18.14334101 
Ag      26.16628239      21.63706017      17.21836330 
Au      25.55152024      23.43870447      19.48312143 
Ag      24.71023214      25.16887468      21.69913539 
Au      24.01762181      23.49937773      24.06865934 
Au      23.20226372      21.82266696      26.32378983 
Ag      26.20462859      22.71931583      22.23660130 
Au      25.44280454      21.01106789      24.57661135 
Ag      25.68775921      18.15538482      23.74048408 
Ag      26.65524618      18.08368441      20.90167245 
Ag      26.95599016      20.92393387      19.98984172 
Ag      27.54168780      20.20138260      22.71840439 
Ag      27.56003835      15.25188552      21.34038078 
Au      28.50637110      17.45381828      18.63464197 
Au      28.80853189      20.02509177      17.77061112 
Ag      28.36260354      23.18144858      18.73798397 
Ag      27.65797464      24.94596627      20.85112439 
Au      26.58271371      24.89549424      24.18435462 
Ag      25.88225425      23.38730512      26.46437897 
Au      25.62455392      20.07055530      27.46538544 
Ag      25.87060620      17.37304945      26.70318500 
Au      26.64500268      15.39966649      23.98880685 
Ag      28.45344930      17.52892258      23.11131617 
Ag      29.28598689      19.36537318      20.68585816 
Ag      28.97197523      22.34190799      21.52069807 
Ag      28.00725732      22.38111271      24.54060713 
Au      27.62709516      19.43935123      25.43977076 
Au      25.50068907      13.32029651      22.20313082 
Au      26.21962016      13.36987784      19.27505320 
Ag      27.23452708      15.20929154      17.03349518 
Ag      27.53818510      18.03798220      15.92990364 
Au      27.66863294      20.83167549      14.95770631 
Au      27.51069345      23.73895384      15.90982460 
Ag      26.86991249      25.62507667      18.13658440 
Ag      25.97982559      27.43057298      20.39309814 
Ag      25.18614508      27.40863470      23.43734542 
Au      24.31329734      25.79325000      25.85227254 
Au      23.39616713      24.01202984      28.16965609 
Au      23.23154814      21.09634932      29.02627577 
Au      23.55042201      18.15557473      28.27274511 
Ag      23.75423917      15.29938127      27.37876380 
Au      24.53746450      13.50839403      25.08010321 
Au      24.29942704      11.61156015      15.36189866 
Ag      23.94043129      14.81367242      14.37649637 
Ag      24.18840391      17.58996061      13.47024524 
Ag      24.45213715      20.36540151      12.57221498 
Au      25.51187328      23.16489869      11.50148870 
Au      24.10213895      25.01478418      14.05483343 
Au      23.32385183      26.76317632      16.27567363 
Ag      22.67877534      28.51540292      18.54479205 
Ag      22.39444115      30.53504349      21.01125198 
Ag      21.30865977      28.55528048      23.27584420 
Ag      20.34627626      26.84950841      25.44622369 
Ag      19.57645453      25.15180076      27.73295278 
Ag      19.29142639      23.59352362      30.42963826 
Au      19.20206518      20.49867449      29.19473168 
Ag      19.39228100      17.67725586      28.37400393 
Au      19.71647953      14.89977758      27.40873929 
Ag      20.40821890      11.86257182      27.09601802 
Au      20.96086812      11.96011579      23.76631296 
Au      21.70424456      11.92768837      20.92030202 
Ag      22.62027620      11.95838271      18.14488928 
Au      29.64329568      14.36689072      23.38508415 
Au      31.49802186      18.48492528      18.31309334 
Au      30.63045751      24.90520137      20.12821144 
Ag      28.45446858      24.99019990      26.55324041 
Au      28.07483899      18.32839061      28.64145920 
Au      28.88331690      27.65778011      18.77631753 
Ag      30.24668456      18.91598103      15.13937532 
Au      28.00737808      11.80484032      21.64695088 
Ag      25.41516215      16.45226427      29.78660015 
Ag      25.82866046      26.22207114      28.29868106 
Ag      26.48275485      26.58755785      15.26215121 
Au      23.24178195      28.69111310      25.68452577 
Ag      21.52670471      18.84908956      30.44419423 
Ag      23.86036808      11.03772607      23.30050590 
Ag      26.82218295      15.87271566      13.91003310 
S      29.67488819      22.93637649      26.31887261 
S      29.43551107      18.36808069      26.72248048 
S      30.71416798      16.41186312      22.96989259 
S      31.73549179      19.77247594      20.26414170 
S      30.93216507      23.78758227      22.16698535 
S      27.72510108      27.20158428      27.16828762 
S      30.59469505      26.15675454      18.12445040 
S      31.49274379      17.20802244      16.33386744 
S      28.82637541      12.19583903      23.83083545 
S      26.87739440      18.19718672      30.65658173 
S      27.76684403      26.59771823      22.78599446 
S      29.93322226      22.13211417      17.09553022 
S      29.00146496      15.14980372      19.27995113 
S      26.84821146      15.05477524      26.41596338 
S      26.21768915      22.14953543      28.64179484 
S      24.05692599      25.65034245      29.83174862 
S      27.28853085      29.28160373      19.32011599 
S      29.43798077      20.31377367      13.34320260 
S      27.31937042      11.20316163      19.48080384 
S      24.18179014      14.38182824      29.64666116 
S      22.68628979      20.82066092      31.36180610 
S      24.85110459      29.73072487      24.29564804 
S      28.19163426      25.26336101      14.11092134 
S      27.91437100      13.98983685      15.00026419 
S      24.46181818      11.14244128      25.68740289 
S      20.13684140      16.85084234      30.59910499 
S      21.54447609      28.12412677      27.22297931 
S      25.06939636      28.45494590      15.91633128 
S      26.12684730      17.20209382      11.98282072 
S      23.22728545      10.01784865      21.17410553 
S      20.20068184      10.23126713      25.34554617 
S      20.67807675      13.31595584      28.99786967 
S      18.29902237      21.54678637      31.23765923 
S      20.28818129      25.74526284      30.04397832 
S      20.93729176      30.98171527      22.87526160 
S      23.93462677      30.58727811      19.17179635 
S      24.60770993      25.33825028      11.66237067 
S      26.46508924      21.03619912      11.24551471 
S      24.18094129      12.61271586      13.23575236 
S      24.46444600      10.42749891      17.38093529 
C      31.34375757      23.35925649      25.68840106 
C      30.78964707      19.56113230      27.03723241 
C      31.76162636      16.72236636      24.44377304 
C      32.83773608      18.82852979      21.38252546 
C      32.53612396      22.90824188      22.01661320 
C      28.85313898      27.74450464      28.52115841 
C      32.11530170      27.19183206      18.19613892 
C      33.19989291      17.33855550      15.65652213 
C      30.33353625      11.14370225      23.91922040 
C      27.99109162      17.30409524      31.81919158 
C      29.39376506      27.06328135      23.50634734 
C      31.66205962      22.25584387      17.69896059 
C      30.81475258      14.96822204      19.50835180 
C      28.59978636      14.83093668      26.91721322 
C      27.92086509      21.99388223      29.30314137 
C      24.80505421      24.61572925      31.15018102 
C      27.96300560      30.13858451      20.79963737 
C      30.46715887      21.83261936      13.37075211 
C      28.80513479      11.36950781      18.41803413 
C      25.43375354      13.07497361      29.33191634 
C      24.16722540      20.23178001      32.26448380 
C      26.23169237      30.21725777      25.40212628 
C      29.82615440      26.01670576      14.45697584 
C      29.71985184      14.18765378      14.72773279 
C      26.16177729      10.48800815      25.88715383 
C      18.81332584      17.33373813      31.78099954 
C      20.57790680      29.68110660      27.38226199 
C      24.60465140      29.23101319      14.31646077 
C      25.58816746      15.93698170      10.75985461 
C      22.12383778       8.62269618      21.63489018 
C      21.48324803       8.95575345      25.66510785 
C      19.36008624      12.92164225      30.20847636 
C      19.23417239      21.09758306      32.75381148 
C      19.16601957      26.99700527      30.77943165 
C      21.90541923      32.02565499      24.03883164 
C      23.42351428      31.97587051      18.08604653 
C      25.99771104      26.50065370      11.36956302 
C      26.20078575      20.55695478       9.49532720 
C      25.80714803      12.30146293      12.44220879 
C      23.76207503       8.76790062      17.03920045 
Au      19.05084013      20.18250392      20.01729721 
Au      16.20443391      20.23337831      19.11328569 
Ag      21.21039943      20.96301705      18.19197569 
Ag      20.89740842      18.14672231      19.04909146 
Ag      19.77252755      23.52402970      17.77129930 
Au      20.57200869      21.79186084      15.50953803 
Au      20.25808302      18.94488736      16.31160197 
Ag      19.94708265      16.15215214      17.20014763 
Ag      18.97826831      16.09613111      19.97954703 
Ag      18.11054763      16.07469193      22.80357865 
Ag      17.81715368      18.87312291      23.70937492 
Ag      17.56913448      21.73174930      24.59781377 
Au      18.29493401      23.48090432      22.35045072 
Ag      19.07067086      25.24611862      20.04430420 
Au      17.58152166      22.75010930      19.56612593 
Ag      18.34319981      20.99292952      17.28471427 
Au      18.05987143      18.16536389      18.12095276 
Au      17.11150012      18.13048228      20.94747577 
Ag      16.84149783      20.94336621      21.83873908 
Ag      19.96101919      14.00407190      21.88331713 
Ag      19.03101255      14.00942662      24.68878078 
Au      18.75424210      16.83860096      25.61603289 
Ag      18.50237611      19.68650738      26.48810660 
Ag      18.15842666      22.56010215      27.35135381 
Au      18.91578712      24.30578403      25.10276359 
Ag      19.74300894      26.07682549      22.76929799 
Ag      15.46473912      22.48963683      26.44195002 
Ag      16.07098653      24.25558288      24.17886988 
Au      16.90459623      26.00522566      21.86656832 
Ag      17.75288071      27.79627290      19.66261665 
Ag      18.37496428      26.11468880      17.30887232 
Ag      19.13681825      24.35775896      15.12419497 
Ag      19.87758133      22.58901706      12.79010369 
Au      19.54675034      19.79955576      13.53846230 
Ag      19.28124051      16.97669143      14.43280209 
Au      19.00793108      14.15040622      15.33318016 
Au      17.98547594      14.00527236      18.09146797 
Ag      17.14654848      14.04174126      20.91193660 
Ag      16.26331087      14.02173322      23.76969573 
Au      15.90371149      16.78454712      24.66275016 
Ag      15.75544852      19.63157376      25.52058806 
Au      17.29226343      19.01425726      15.33671728 
Au      17.12867632      16.18240333      16.21767030 
Au      16.09747082      16.03324685      19.03954241 
Ag      15.32221372      16.07639857      21.88531140 
Au      14.89825171      18.86367366      22.77564265 
Au      14.76251755      21.65859303      23.67949825 
Ag      15.35132921      23.50926861      21.41734073 
Ag      16.22332681      25.23435723      19.17081483 
Ag      16.86044553      23.59710475      16.84015631 
Au      17.67866803      21.86420875      14.60816905 
Ag      14.72656371      22.74718635      18.66886348 
Au      15.47569577      21.03319754      16.33089582 
Au      15.16858164      18.14317403      17.18591528 
Ag      14.27954944      18.15243444      20.01971106 
Ag      13.95710269      20.96972501      20.94780226 
Au      13.32121402      20.21500652      18.20368458 
Ag      13.36721200      15.32446093      19.67971612 
Ag      12.47110114      17.37161021      22.19644251 
Ag      12.18359910      20.01378682      23.17623930 
Ag      12.52562736      23.26635906      22.02648098 
Ag      13.25364599      25.03029548      19.95727703 
Ag      14.27964284      24.95728446      16.78861963 
Ag      15.01864062      23.37794048      14.50879607 
Ag      15.25243309      20.10626619      13.53223138 
Ag      15.11673297      17.35201097      14.23226012 
Ag      14.18685547      15.41960679      16.95093158 
Ag      12.40705058      17.53072775      17.91684455 
Ag      11.62166034      19.41405967      20.29179266 
Ag      11.94040525      22.41089076      19.30002371 
Au      12.95826102      22.35971780      16.34014978 
Ag      13.20636391      19.36354067      15.48657009 
Ag      15.26264942      13.31562266      18.67923619 
Ag      14.48015238      13.34039131      21.61534385 
Ag      13.54412011      15.14701008      23.91025516 
Ag      13.32557399      17.96801606      24.97004116 
Au      13.21735735      20.79569091      25.91254655 
Ag      13.24134317      23.70650858      24.86575959 
Ag      14.09151391      25.70837530      22.71595487 
Ag      14.95675931      27.49584640      20.42540633 
Au      15.82736463      27.43809681      17.51902808 
Ag      16.51531593      25.83085480      15.11195997 
Au      17.44174754      24.08962984      12.90511200 
Ag      17.43499865      21.22126559      11.84407959 
Au      17.36274606      18.26015947      12.55259865 
Ag      17.21468556      15.32097144      13.43502839 
Ag      16.17120577      13.52162653      15.72966037 
Au      16.52497545      11.56243493      25.56471386 
Au      16.86053403      14.81211691      26.53004546 
Ag      16.66332324      17.58496673      27.39069208 
Ag      16.39570108      20.36500889      28.27985640 
Au      15.37806796      23.29008339      29.33401716 
Ag      16.71090345      25.12372070      26.86075754 
Au      17.60428446      26.76114183      24.65764947 
Ag      18.37607752      28.53017564      22.44334269 
Au      18.42972571      30.69124546      20.09335216 
Au      19.81508178      28.55933658      17.74512820 
Ag      20.56154112      26.89691942      15.48094626 
Ag      21.24715175      25.12236486      13.21316452 
Ag      21.59248409      23.45103041      10.48679001 
Ag      21.54301538      20.46489429      11.62593963 
Ag      21.40227878      17.67383470      12.58956665 
Ag      21.10484941      14.87234115      13.44262531 
Ag      20.40374088      11.86055605      13.94577327 
Au      19.78768263      11.98470842      17.16002292 
Au      19.01679899      11.94604314      19.97598907 
Au      18.11864647      12.04976189      22.75660975 
Ag      11.41205913      14.44537707      17.58087548 
Au       9.58869973      18.41839244      22.77602463 
Au      10.27484403      24.99372916      20.79888418 
Ag      12.39043220      24.82386033      14.39535952 
Au      13.00413392      18.36123016      12.28115648 
Ag      12.15210513      27.69406158      21.76298219 
Ag      10.70280598      18.79513558      25.93351995 
Au      12.88223830      11.70830180      19.10366496 
Ag      15.62644150      16.56225639      10.97975756 
Au      14.93398629      26.40018994      12.67118884 
Au      14.27614899      26.68119058      25.62508551 
Ag      17.84960408      28.58447946      15.34096115 
Au      19.26049675      18.93243933      10.22227521 
Ag      16.89565259      11.03946526      17.53893314 
Ag      13.98689927      15.83788023      27.00453767 
S      11.25981789      22.70171196      14.57606177 
S      11.50613962      18.19250262      14.08411360 
S      10.16908386      16.43987567      18.08759101 
S       9.22571615      19.81756231      20.92774004 
S       9.88548545      23.77933499      18.83075374 
S      13.00167510      27.09332708      13.83949476 
S      10.41062616      26.32925775      22.73700980 
S       9.63881170      17.02517010      24.67884215 
S      12.10719650      12.22117494      16.92938179 
S      14.26663478      18.44971019      10.29126562 
S      12.92077678      26.65243963      18.03995896 
S      11.10753631      22.23812345      23.82791585 
S      11.89554329      14.96673780      21.71723640 
S      14.20554425      14.98208193      14.48643665 
S      14.84457461      22.20215689      12.22646207 
S      16.84137091      25.91469820      11.38208891 
S      13.60821401      29.47373427      21.10298754 
S      11.52040835      20.31262693      27.60533570 
S      13.61106297      11.01674043      21.22319074 
S      16.87030587      14.51756417      11.11507568 
S      18.30016273      20.98076787       9.52524799 
S      16.06528217      29.68923674      16.58482071 
S      12.71874817      25.28544865      26.72316190 
S      12.96994905      13.88719247      25.97238013 
S      16.40244840      11.11776611      15.16891232 
S      20.41403120      16.88360910      10.44826700 
S      19.57410142      28.27648501      13.66053975 
S      15.74583710      28.37028188      24.86905141 
S      14.62271969      17.37024917      28.78928858 
S      17.38195279      10.11135092      19.73192676 
S      20.65269734      10.21080955      15.69647991 
S      20.17865932      13.13794684      11.92060219 
S      22.66431919      21.46568895       9.65002223 
S      20.47508942      25.53702007      10.88949416 
S      19.86161248      30.99850735      18.24795804 
S      16.98152062      30.57389050      21.93504840 
S      16.20658227      25.49245323      29.28232624 
S      14.42979614      21.16165984      29.62026956 
S      16.69445918      12.61983417      27.65663304 
S      16.38917624      10.42138724      23.51738937 
C       9.59470435      22.98837406      15.28867887 
C      10.12272467      19.32633042      13.67324554 
C       9.16820641      16.81095131      16.59280370 
C       8.08495640      18.89876950      19.82358897 
C       8.33761726      22.83924472      19.11822148 
C      11.85507648      27.62281529      12.49910988 
C       8.92376122      27.41601391      22.66342773 
C       7.90251401      17.01411257      25.29714312 
C      10.57248935      11.21646107      16.76256178 
C      13.14467307      17.74699980       9.00998390 
C      11.21425272      26.87775565      17.39169473 
C       9.31808047      22.57468732      23.56970229 
C      10.08248986      14.69889319      21.53192009 
C      12.57338044      14.49510697      13.79185825 
C      13.26484527      22.10616147      11.28874331 
C      16.20972214      25.00647001       9.91814277 
C      12.97056556      30.10340270      19.50007612 
C      10.44608002      21.79915892      27.55367853 
C      12.10238990      11.04598608      22.27267722 
C      15.64657764      13.16842492      11.35828614 
C      16.90846227      20.53954893       8.41387854 
C      14.70615663      30.06952858      15.41479126 
C      11.06848782      26.04217117      26.45885489 
C      11.16437509      13.94500923      26.29869499 
C      14.75583180      10.34970438      14.90826638 
C      21.75614316      17.01379047       9.19765927 
C      20.50353691      29.86352415      13.74093330 
C      16.12797752      29.30672274      26.40344329 
C      15.12569212      16.22879991      30.14313126 
C      18.44150350       8.66222050      19.33709504 
C      19.40560747       8.90030468      15.38124814 
C      21.47084847      12.53124671      10.76692248 
C      21.79485474      21.05065743       8.08359301 
C      21.54198743      26.84982761      10.17544618 
C      18.92459528      32.00824917      17.03520051 
C      17.46626276      31.96778972      23.02481364 
C      14.75515584      26.57218025      29.59926644 
C      14.70247071      20.73414532      31.38360197 
C      15.10134099      12.34063189      28.52167153 
C      17.17974841       8.78978252      23.78277353 
H      31.86939727      22.42215367      25.46633918 
H      31.88922853      23.90058830      26.46964505 
H      31.28995924      23.96630031      24.77885088 
H      31.39973968      19.60349569      26.12648663 
H      31.39542577      19.18507823      27.86930014 
H      30.40276255      20.56115860      27.25994826 
H      32.25399460      17.69091539      24.29084870 
H      32.52202878      15.93718656      24.51578178 
H      31.16434435      16.76177152      25.36023905 
H      33.84011431      18.78905530      20.94197306 
H      32.45930879      17.81624899      21.55827433 
H      32.87968444      19.37314129      22.33404389 
H      33.33843188      23.64100954      21.87890712 
H      32.52543870      22.18972626      21.19009560 
H      32.69266496      22.37135703      22.96065111 
H      29.81789023      28.02138438      28.08034040 
H      29.00599770      26.95526267      29.26270336 
H      28.41202786      28.62154214      29.00899949 
H      32.06551111      27.91892169      17.37710417 
H      32.97927044      26.53248439      18.05304602 
H      32.20000922      27.71410184      19.15305958 
H      33.19085273      16.91220642      14.64630669 
H      33.87448939      16.75646993      16.29464054 
H      33.53920922      18.37711763      15.61338929 
H      30.01087748      10.09628054      23.94322848 
H      30.86307844      11.38853739      24.84727541 
H      30.98991349      11.31128087      23.06098994 
H      28.82607048      17.96279066      32.08363435 
H      28.37512330      16.37857410      31.38149178 
H      27.40955920      17.07012969      32.71897404 
H      29.85055755      27.81621838      22.85310541 
H      30.04148238      26.18131651      23.55847519 
H      29.22365250      27.47611421      24.50765468 
H      32.25759682      21.46032842      17.23507988 
H      31.71679398      22.16219123      18.78728365 
H      32.03729172      23.23979343      17.39264470 
H      31.30260466      15.10643632      18.53730188 
H      30.99811448      13.95793169      19.89371022 
H      31.18569883      15.70673689      20.22634696 
H      28.91738828      13.83020879      26.60233742 
H      28.65228972      14.92241258      28.00906507 
H      29.23895243      15.59021246      26.45675198 
H      28.21452733      22.97116334      29.70607540 
H      28.62816394      21.69842531      28.52332679 
H      27.90536000      21.24437541      30.10319543 
H      23.98813621      24.12925796      31.69741665 
H      25.36688201      25.27237517      31.82440606 
H      25.46381845      23.84893714      30.72700834 
H      28.83724434      30.73277457      20.51285567 
H      28.22674798      29.43045199      21.59229254 
H      27.16565910      30.80148957      21.15899644 
H      31.42489340      21.60938665      12.88654274 
H      30.63087485      22.17819814      14.39821839 
H      29.93344877      22.60726362      12.80637919 
H      28.46211077      11.27409695      17.38000754 
H      29.50289965      10.56005904      18.65993691 
H      29.28300520      12.34527116      18.55331237 
H      24.89779368      12.17521690      29.00498981 
H      25.97477895      12.86616277      30.26160374 
H      26.13623369      13.37511387      28.54582201 
H      24.86255650      21.07204024      32.37513785 
H      24.66997773      19.41678708      31.73536353 
H      23.84240358      19.88844244      33.25400370 
H      27.03531252      30.60119195      24.76168424 
H      26.60380000      29.36546284      25.98282139 
H      25.89052414      31.01218940      26.07444959 
H      29.91494752      26.93702037      13.86795838 
H      30.60045859      25.30529793      14.14548970 
H      29.94767265      26.24031037      15.52166047 
H      29.93588745      14.05116972      13.66222803 
H      30.23261472      13.40929298      15.30554570 
H      30.07797992      15.16890400      15.05569870 
H      26.11622303       9.39385023      25.83195437 
H      26.53243767      10.79064755      26.87387675 
H      26.83437830      10.87268389      25.11411990 
H      18.06422519      16.53279239      31.79587442 
H      18.33087850      18.27206526      31.48607434 
H      19.24804490      17.43826342      32.78193198 
H      19.68493919      29.45040345      27.97635740 
H      20.27528606      30.06936041      26.40409240 
H      21.18504868      30.42609956      27.90871608 
H      25.48169918      29.75718332      13.92129899 
H      23.80066123      29.95182888      14.50716866 
H      24.26020350      28.48477371      13.59312089 
H      25.09645671      16.45677719       9.92879930 
H      24.88795861      15.21851650      11.20028248 
H      26.47156140      15.40819288      10.38365388 
H      21.64603076       8.24754560      20.72191039 
H      21.35258329       8.94083634      22.34421263 
H      22.73588619       7.82874796      22.07924399 
H      21.57667512       8.32454954      24.77380357 
H      21.13895323       8.34616251      26.50896485 
H      22.45208133       9.40919733      25.89807980 
H      19.69796543      12.06692235      30.80671778 
H      18.41431376      12.68055523      29.71178846 
H      19.23939819      13.80065615      30.85357068 
H      18.98125487      20.06797390      33.03143685 
H      18.91374849      21.77927640      33.55060526 
H      20.31455378      21.18178840      32.60038181 
H      19.45514233      27.97836732      30.38420772 
H      19.30155131      26.99244764      31.86721576 
H      18.11785503      26.79059645      30.53667582 
H      21.95138247      33.04031596      23.62699908 
H      22.91660989      31.63089138      24.18272458 
H      21.38289020      32.04709908      25.00236001 
H      23.92879777      31.84601919      17.12136049 
H      23.74600216      32.91931492      18.54147008 
H      22.33787245      31.98948916      17.93989039 
H      26.26342102      26.44301865      10.30754952 
H      26.86208000      26.24833514      11.99294148 
H      25.64708914      27.51224893      11.60595355 
H      26.91000621      21.10677733       8.86655608 
H      25.17242285      20.76034278       9.17694920 
H      26.40968062      19.48162577       9.43524670 
H      25.82813220      12.85661175      11.49694797 
H      25.88767689      11.22818465      12.23703147 
H      26.63167246      12.62948435      13.08449019 
H      24.45951636       8.20569031      16.40839859 
H      22.78388859       8.84333370      16.55127357 
H      23.65911997       8.26791189      18.01027437 
H       8.96221766      23.44548755      14.51878446 
H       9.64190373      23.63608398      16.17029628 
H       9.17598862      22.01598498      15.57559895 
H       9.61500089      18.96231222      12.77356319 
H      10.47998648      20.35130207      13.52657529 
H       9.42579439      19.30199070      14.52027972 
H       8.37487572      16.06078712      16.50023700 
H       9.78647823      16.81552229      15.68893751 
H       8.71579042      17.80120851      16.72701814 
H       7.94865733      19.51012523      18.92272804 
H       7.12022309      18.77248631      20.32670955 
H       8.50323237      17.92578101      19.54328958 
H       8.17241192      22.21402313      18.23176728 
H       7.50535466      23.54336667      19.22572723 
H       8.41408298      22.19935816      20.00332435 
H      12.25137027      28.53613153      12.04080953 
H      10.88281168      27.83571965      12.95923694 
H      11.73790070      26.84759035      11.73686424 
H       8.03582743      26.80951547      22.87499959 
H       8.82133286      27.89148159      21.68396276 
H       9.03580046      28.18577402      23.43622987 
H       7.29286119      16.41159585      24.61419627 