646
Properties=species:S:1:pos:R:3 i=92 optimized=T E=-9873.0369080433 pbc="F F F" jobid=246_80-Ag-30_1-000009-PBE
Ag      21.88828551      20.19364616      20.90075266 
Au      24.77624961      20.15375843      21.81042998 
Au      20.43181247      22.67604314      20.41638029 
Au      19.70578958      20.97178793      22.73872905 
Ag      20.00069403      18.17133319      21.85022634 
Au      21.11640997      23.50550961      23.14142773 
Ag      20.38999636      21.75935834      25.44729683 
Au      20.70161800      18.98864790      24.60815328 
Au      20.90829493      16.16302982      23.73841993 
Au      21.81320504      16.12378966      20.94699026 
Au      22.71800105      16.10508568      18.09709852 
Au      23.03338831      18.88485417      17.21882869 
Au      23.22804321      21.69434804      16.30253655 
Au      22.59576387      23.46468418      18.54269412 
Au      21.85046895      25.20024065      20.84116776 
Au      23.37713729      22.70825894      21.32306478 
Au      22.62740427      20.99844232      23.62915364 
Au      22.89658337      18.16908719      22.80233269 
Au      23.79800317      18.14442416      19.97931682 
Au      24.08647328      20.95034455      19.07743704 
Au      20.86811774      13.97701966      19.03355942 
Au      21.81685837      14.03712747      16.18185555 
Ag      22.14609454      16.86096496      15.29265595 
Au      22.33393453      19.67495616      14.35831259 
Ag      22.62834213      22.54628410      13.50664652 
Au      21.94945652      24.31776422      15.78920936 
Au      21.16286028      26.07295407      18.07115213 
Au      20.46353999      27.76272966      20.43624839 
Au      25.32425148      22.47476981      14.47725189 
Ag      24.74564464      24.29542540      16.68466965 
Au      24.00119885      25.94089788      18.96517674 
Ag      23.22282272      27.77626411      21.28610438 
Au      22.59808012      26.10526409      23.57694001 
Au      21.78180078      24.30754164      25.82206433 
Au      20.96191814      22.54952324      28.13177998 
Au      21.35862708      19.72356742      27.43181210 
Au      21.56864676      16.98473633      26.52801546 
Au      21.76584838      14.14105018      25.61616286 
Au      22.78245320      14.01654534      22.80661042 
Au      23.60576728      14.04032747      20.03127958 
Au      24.51716893      14.03996894      17.11269115 
Au      25.00350752      16.80649143      16.21413220 
Au      25.14756556      19.56887803      15.39858998 
Au      23.66093029      19.00021757      25.56590212 
Au      23.79414681      16.20841540      24.70873166 
Au      24.79353766      16.07929698      21.93339702 
Au      25.55153522      16.05909227      19.06613164 
Ag      26.02198908      18.84498439      18.13539000 
Au      26.15241712      21.64813551      17.24933860 
Au      25.60378127      23.48267984      19.49728023 
Ag      24.71482493      25.22786494      21.69777925 
Au      24.10600203      23.53522726      24.06085474 
Au      23.28931422      21.81573663      26.33679813 
Ag      26.20910109      22.71578966      22.24168189 
Ag      25.50725532      21.00750700      24.59363609 
Ag      25.81954191      18.12379357      23.77576429 
Au      26.70335014      18.07534823      20.89265707 
Ag      27.00518645      20.94104171      19.95345890 
Au      27.63929191      20.19943881      22.74411168 
Au      27.58573534      15.20032950      21.36656180 
Au      28.52909568      17.36029618      18.60275121 
Au      28.84752005      19.94179766      17.73036624 
Au      28.41445324      23.28062497      18.77191429 
Ag      27.71072878      25.04112308      20.86948003 
Ag      26.64973993      24.91673999      24.12040126 
Ag      25.89037108      23.42485452      26.43309430 
Au      25.74964750      20.08847461      27.43812405 
Au      25.97415720      17.41581651      26.70157769 
Au      26.78130984      15.30079471      24.01753198 
Au      28.59309708      17.50569608      23.03241216 
Au      29.32336635      19.32760689      20.65013122 
Au      28.96013892      22.40161056      21.53206656 
Au      28.01933080      22.37937047      24.53527145 
Au      27.83322268      19.38138038      25.42378915 
Au      25.52003510      13.27390893      22.24166821 
Au      26.20584320      13.27891878      19.28201593 
Ag      27.28021801      15.14393379      17.02585168 
Ag      27.61480649      18.00026167      15.90051104 
Au      27.65928276      20.86146542      14.98735508 
Au      27.49259605      23.72053292      15.94271291 
Au      26.83898182      25.70501106      18.10045549 
Au      25.89893443      27.46858928      20.35671238 
Ag      25.28475507      27.44092078      23.36725218 
Au      24.39617515      25.84809793      25.77160470 
Au      23.43232670      24.06384103      28.11718897 
Au      23.35237479      21.12334746      29.05008939 
Au      23.64726012      18.17373152      28.32724257 
Au      23.69122276      15.30550487      27.40323640 
Au      24.56383008      13.56229877      25.10749495 
Au      24.35740264      11.51977492      15.44408753 
Au      24.04781341      14.81005214      14.32760871 
Au      24.19661692      17.54776334      13.38990652 
Au      24.46226074      20.37671403      12.63936951 
Ag      25.40742229      23.20404649      11.55666673 
Au      24.12552303      25.08506719      13.96720639 
Ag      23.32541007      26.82716796      16.19173508 
Au      22.58209610      28.47411439      18.52760865 
Au      22.56130804      30.72455595      20.86557089 
Au      21.20080841      28.60428507      23.23217541 
Ag      20.38741137      26.85461585      25.43214025 
Ag      19.71207424      25.13693404      27.70913290 
Au      19.46729226      23.58661374      30.56074049 
Ag      19.26399610      20.47040975      29.25917976 
Au      19.38611797      17.68091513      28.42183875 
Ag      19.70901628      14.89959989      27.53860541 
Ag      20.45257861      11.87434899      27.06595316 
Au      21.07377847      11.96286479      23.80444780 
Ag      21.78164621      11.93262318      20.95870945 
Ag      22.68639649      11.96669200      18.12521817 
Ag      29.56364512      14.30837795      23.48327804 
Au      31.48978321      18.29380754      18.14806326 
Au      30.73819929      25.00114962      20.02594561 
Ag      28.43889010      25.09370534      26.58634778 
Au      28.05226260      18.46917244      28.82426941 
Au      28.91268359      27.73991858      18.84611060 
Au      30.31136956      18.65447764      14.83243473 
Au      28.05183091      11.71208343      21.74348322 
Au      25.36161674      16.51209840      30.12645738 
Ag      25.82216849      26.22242604      28.28222292 
Au      26.51370691      26.82370778      15.18135449 
Au      23.21063348      28.68238982      25.65514324 
Ag      21.70126668      18.94071834      30.50810403 
Au      23.95604032      10.80642504      23.28176206 
Ag      26.94328996      15.67907462      13.97435596 
S      29.62458098      23.03680388      26.27562999 
S      29.53846492      18.53638368      27.01093288 
S      30.77160495      16.36358809      23.14664666 
S      31.72480188      19.57357372      20.10398063 
S      30.97661017      23.77214101      22.00582008 
S      27.70262670      27.29156936      27.19996473 
S      30.68139426      26.35767400      18.10066804 
S      31.42590665      17.03928513      16.15096395 
S      28.91457209      12.02342087      23.91995891 
S      26.73439712      18.32510402      30.77310126 
S      27.89250839      26.65305092      22.81685871 
S      29.90161114      22.11448284      17.18180514 
S      29.02176034      15.06906170      19.35820905 
S      26.93562906      15.15525085      26.46573385 
S      26.25509736      22.17710646      28.61036355 
S      24.07381120      25.63731479      29.84309437 
S      27.32284144      29.31870501      19.54486604 
S      29.34987708      20.21121704      13.35867275 
S      27.32760177      11.14213587      19.57635658 
S      24.07298858      14.59252500      29.70474883 
S      22.74968090      20.98392187      31.39446065 
S      24.83694862      29.72064085      24.27878356 
S      28.10050373      25.33949314      14.22752239 
S      27.98452762      13.78350152      15.08938171 
S      24.48907368      11.17676228      25.56276020 
S      20.31201409      16.94169126      30.55801135 
S      21.53363983      28.14027438      27.23543112 
S      25.04938088      28.58246793      15.74864357 
S      26.26896449      17.13154657      12.14272612 
S      23.36531005      10.00791463      21.14337359 
S      20.24582999      10.21404239      25.32940898 
S      20.67381200      13.18767223      29.06005356 
S      18.44691103      21.60954690      31.33291864 
S      20.39797891      25.68778167      30.06406525 
S      21.13961617      31.01992497      22.71099079 
S      23.90599494      30.49423818      18.94693018 
S      24.65129302      25.49028155      11.58720282 
S      26.35389216      21.01091869      11.23305714 
S      24.22658650      12.54889450      13.33031356 
S      24.42957971      10.29399173      17.44649183 
C      31.26977027      23.42128329      25.56626736 
C      30.82260323      19.79086725      27.36872283 
C      31.72711077      16.81648416      24.64298527 
C      32.78862855      18.63920819      21.26373920 
C      32.50314505      22.77037136      21.83975324 
C      28.80358362      27.82415126      28.57959978 
C      32.15871274      27.44473784      18.24584867 
C      33.14325419      17.05491975      15.49325629 
C      30.45258071      11.01286849      23.93364717 
C      27.83928086      17.59486152      32.04877440 
C      29.53500669      26.96777114      23.58601672 
C      31.63655376      22.22307814      17.75643385 
C      30.81223558      14.97569305      19.74413961 
C      28.71181225      15.09098881      26.90921826 
C      27.94331554      22.07527830      29.31744302 
C      24.81430340      24.57599515      31.14301069 
C      28.01041182      30.03994600      21.08489917 
C      30.50265175      21.63967553      13.40308362 
C      28.81223712      11.30603323      18.51049615 
C      25.30467252      13.24574080      29.50379468 
C      24.19431882      20.49636588      32.40886156 
C      26.19869849      30.24204392      25.39094277 
C      29.75127750      26.07286102      14.52649671 
C      29.79325953      13.89077382      14.79855358 
C      26.15846324      10.48095732      25.84347968 
C      18.99653631      17.30203762      31.78911513 
C      20.57597504      29.70386406      27.37708512 
C      24.61019624      29.28506568      14.10697423 
C      25.77380863      15.95094722      10.82464018 
C      22.28763652       8.56596140      21.51806580 
C      21.52976814       8.94887810      25.67937844 
C      19.36949675      12.63053758      30.22437767 
C      19.34134817      21.16694753      32.87494975 
C      19.25203927      26.90769421      30.81485683 
C      22.03905654      32.05365763      23.92839365 
C      23.34855126      31.79687702      17.78491568 
C      26.13376361      26.54201224      11.33360850 
C      25.97448968      20.47167141       9.52386187 
C      25.83545842      12.24243707      12.50421367 
C      23.61764705       8.69558724      17.05474803 
Au      18.97701923      20.18100373      19.97002595 
Ag      16.10533035      20.19974762      19.05556924 
Au      21.13027420      20.97138961      18.14579060 
Au      20.89726243      18.15847251      19.05904686 
Ag      19.72499472      23.50557064      17.66922951 
Ag      20.48387378      21.76570755      15.38276514 
Au      20.19307330      18.95830323      16.23380797 
Au      19.96026150      16.17033643      17.16355651 
Ag      19.00991869      16.13417027      19.95575302 
Au      18.18095676      16.11573955      22.78951237 
Au      17.87334463      18.90164277      23.66441464 
Ag      17.60149133      21.73974027      24.58962249 
Ag      18.27756459      23.46348078      22.29703994 
Au      19.03867840      25.14485866      20.00136255 
Ag      17.53333113      22.68819227      19.49898164 
Au      18.26035407      20.99095977      17.22667224 
Au      17.96149893      18.18306466      18.07652105 
Au      17.09084805      18.15147568      20.88883811 
Au      16.84262722      20.95952780      21.79084206 
Ag      20.02748331      14.01009321      21.89649717 
Ag      19.08376992      14.00407355      24.74097674 
Au      18.78051905      16.83893304      25.65204953 
Ag      18.57759449      19.70249120      26.50025390 
Ag      18.24547347      22.54545411      27.35445248 
Ag      18.95212571      24.31315258      25.04656935 
Au      19.72769859      26.07572113      22.78950003 
Ag      15.52402054      22.51935033      26.45559080 
Ag      16.12297817      24.29280942      24.17817232 
Au      16.86629025      25.92209837      21.89942652 
Au      17.72196498      27.68941143      19.57880968 
Ag      18.33944666      26.04864456      17.21501960 
Ag      19.07178912      24.32663354      14.99036359 
Ag      19.85138407      22.56046091      12.66750668 
Au      19.47539871      19.72634512      13.41389711 
Ag      19.31550877      16.95972843      14.36650502 
Au      19.13413432      14.10399460      15.27941836 
Au      18.07307096      14.03837014      18.10629337 
Au      17.25151483      14.05336915      20.88273105 
Au      16.42202597      14.03058265      23.77368062 
Au      15.97581819      16.82638922      24.67062107 
Au      15.78536777      19.60931059      25.49024425 
Au      17.26066583      18.93755947      15.24929076 
Au      17.14156857      16.16933409      16.21374617 
Au      16.04423104      16.02537903      18.97271534 
Au      15.29852759      16.07331647      21.79819315 
Ag      14.87137184      18.81848860      22.78232865 
Au      14.81555858      21.68198284      23.66917229 
Ag      15.34201689      23.48080928      21.37992810 
Au      16.18947863      25.17741939      19.07963128 
Au      16.81906240      23.54239774      16.72126831 
Au      17.67459088      21.80358226      14.51548677 
Au      14.63739692      22.74781919      18.60052736 
Au      15.41024899      20.96065186      16.29127678 
Ag      15.10917018      18.09291473      17.11305196 
Au      14.23849830      18.08908038      19.99342292 
Au      13.96517704      20.95092042      20.93263365 
Ag      13.28759571      20.17502531      18.16122669 
Ag      13.24260757      15.17133163      19.61366497 
Ag      12.39027400      17.22510545      22.26310134 
Au      12.17899014      19.84910305      23.22820035 
Au      12.48734240      23.31090871      22.06742182 
Au      13.13504783      24.98559231      19.99852667 
Au      14.15357763      24.97316113      16.59751587 
Au      14.87236529      23.41968453      14.44316544 
Ag      15.20129567      20.02400780      13.46970877 
Au      14.99509748      17.32518438      14.20039566 
Au      14.11668247      15.26885713      16.91940856 
Au      12.37916008      17.48843890      17.92958928 
Au      11.67155593      19.34082347      20.32134152 
Ag      11.85193491      22.34754117      19.34436741 
Au      12.83529915      22.32568991      16.38250181 
Au      13.14912542      19.39974324      15.44457880 
Ag      15.34275574      13.24422092      18.68495552 
Au      14.60333485      13.32604540      21.60899538 
Au      13.72838476      15.11809551      23.88883569 
Ag      13.31304617      17.88557036      25.02867326 
Au      13.28477942      20.81518283      25.88290685 
Ag      13.32128363      23.73593704      24.89000225 
Ag      14.06537561      25.70556200      22.70148061 
Ag      14.96039958      27.41893291      20.37776076 
Au      15.80939121      27.42953104      17.44820043 
Ag      16.45639583      25.82567151      15.02275030 
Ag      17.31815690      24.00997476      12.78665990 
Ag      17.44619552      21.09742776      11.78809355 
Ag      17.25277214      18.11902397      12.52273949 
Au      17.18407087      15.28183910      13.53038893 
Au      16.32158809      13.53161272      15.84908097 
Au      16.60661213      11.55194272      25.51584899 
Au      16.85216908      14.83652302      26.57505774 
Au      16.70912650      17.57690947      27.47225939 
Au      16.48015233      20.38516961      28.23466690 
Au      15.42993106      23.28145783      29.37850726 
Au      16.88458830      25.09246207      26.84831365 
Ag      17.57410679      26.82561702      24.62123737 
Au      18.33495140      28.48180944      22.33298873 
Ag      18.38702059      30.59275960      20.00861587 
Au      19.74946717      28.61353875      17.65036431 
Au      20.49455259      26.89001930      15.42958632 
Au      21.21349845      25.09248875      13.21089565 
Au      21.43057838      23.63110147      10.30873504 
Au      21.64463466      20.46576396      11.64037536 
Au      21.48419331      17.68418665      12.49226236 
Au      21.23982108      14.93832838      13.41993068 
Au      20.34802187      11.79305572      13.73287084 
Au      19.85155124      11.94307455      17.16346294 
Au      19.10179408      11.94704814      19.94259502 
Au      18.26420961      11.99370368      22.73605632 
Au      11.18336485      14.27161463      17.40222836 
Au       9.49510090      18.34593905      22.80690897 
Ag      10.23904784      24.84766579      20.83537755 
Au      12.19612132      24.99865994      14.18595222 
Au      12.94480389      18.48034113      12.08775123 
Au      11.95796128      27.66359810      22.00397943 
Au      10.63017785      18.72408058      26.12745078 
Au      12.84496232      11.70190978      19.18962869 
Au      15.55526259      16.52423157      10.74347055 
Au      14.99064041      26.47490039      12.52839539 
Ag      14.49996304      26.60067262      25.64227753 
Ag      17.75580333      28.59888719      15.30537265 
Ag      19.24128628      18.98645177      10.38305581 
Au      16.86743521      10.74738551      17.60176897 
Au      13.74757984      15.75771362      27.17061113 
S      11.23395252      22.89607401      14.58036936 
S      11.45308720      18.48427507      13.89996874 
S      10.18579364      16.35578043      17.78385436 
S       9.28857541      19.61552743      20.84621734 
S       9.73463505      23.59457196      18.84502403 
S      13.00539192      27.14226650      13.63602960 
S      10.22983037      26.26307206      22.80235044 
S       9.48757332      17.12121535      24.81800769 
S      11.96228661      12.08017087      17.03167338 
S      14.27460105      18.41736827      10.14032491 
S      12.91529018      26.50254808      18.06164567 
S      11.16273340      22.10099204      23.73944655 
S      11.66822447      14.93536518      21.57240669 
S      13.92447013      15.09246112      14.44670923 
S      14.90657186      22.21284664      12.28155035 
S      16.91247776      25.96322390      11.28868170 
S      13.54646497      29.24410865      21.30319137 
S      11.62236643      20.27264335      27.59047913 
S      13.62038488      11.11035089      21.32318988 
S      16.82166628      14.60231750      11.20147185 
S      18.21894849      20.98975903       9.44235453 
S      15.92370519      29.67374850      16.52734671 
S      12.77619019      25.26639802      26.73242909 
S      12.92066174      13.96283006      25.88250791 
S      16.32688423      11.15211813      15.33757677 
S      20.45137660      16.87040086      10.41598699 
S      19.57188291      28.35855904      13.69334438 
S      15.87980371      28.55559911      25.22373049 
S      14.56773284      17.35217834      28.69722136 
S      17.50631586      10.05256851      19.76168696 
S      20.57738765      10.27159016      15.51240581 
S      20.23406826      13.24776420      11.88896493 
S      22.45784702      21.63486778       9.62253751 
S      20.46071892      25.67431916      10.94248948 
S      19.74521802      31.03948669      18.07011806 
S      16.97457928      30.46586674      21.96466390 
S      16.25660664      25.47377427      29.24011904 
S      14.57247658      21.11251702      29.65177441 
S      16.72551473      12.61081721      27.61191527 
S      16.52129384      10.37746215      23.48159403 
C       9.55185065      23.17933241      15.24690124 
C      10.13242170      19.69244569      13.51559823 
C       9.24616842      16.81877075      16.28103242 
C       8.21779639      18.68982321      19.68525411 
C       8.20014978      22.62796074      19.11832721 
C      11.93682339      27.73952581      12.26354250 
C       8.73477183      27.33422300      22.72806183 
C       7.75750829      17.20134173      25.43650189 
C      10.45404020      11.02719421      17.00369789 
C      13.16546225      17.79748378       8.81010121 
C      11.18046227      26.63962863      17.48240646 
C       9.38312294      22.30967650      23.34336688 
C       9.87063076      14.95001093      21.19017629 
C      12.16868954      15.01197652      13.93516879 
C      13.31479530      22.29974332      11.36528169 
C      16.27019881      25.10216383       9.79607180 
C      12.83015810      29.95340924      19.76658962 
C      10.51568053      21.73633235      27.55006291 
C      12.13056269      11.21729094      22.39070249 
C      15.57319719      13.27101873      11.40648533 
C      16.87330197      20.47711581       8.30468513 
C      14.56769170      30.03475130      15.35004048 
C      11.17034489      26.10915066      26.44895811 
C      11.09373254      13.97794063      25.99140336 
C      14.64647638      10.49149317      15.03693359 
C      21.76902614      17.10801255       9.15703808 
C      20.49586251      29.93651264      13.87668995 
C      16.33722032      29.12614131      26.91155433 
C      15.00833389      16.33710477      30.16340010 
C      18.58031180       8.60065444      19.42746087 
C      19.33285592       8.95117533      15.24382542 
C      21.53993581      12.68587925      10.73247649 
C      21.62463949      21.12423437       8.07006350 
C      21.54938541      26.99876336      10.29672867 
C      18.73222653      32.01882992      16.89515415 
C      17.52650315      31.73939745      23.15958966 
C      14.81437318      26.57750943      29.50032212 
C      14.89610029      20.66603678      31.39979014 
C      15.11401407      12.31888938      28.43901540 
C      17.27861099       8.74080520      23.80160738 
H      31.76565959      22.47112666      25.33213981 
H      31.85377362      23.96044740      26.32097525 
H      31.18828242      24.01919883      24.65292200 
H      31.52660205      19.77364174      26.52714457 
H      31.34479638      19.50661186      28.28895398 
H      30.39568595      20.79509159      27.46031470 
H      32.21029696      17.78314630      24.45313070 
H      32.49514216      16.05231148      24.80880685 
H      31.08777470      16.90540859      25.52738911 
H      33.77813099      18.52022682      20.80850650 
H      32.35641196      17.66503948      21.51589005 
H      32.87422734      19.24240162      22.17636250 
H      33.35971015      23.44500725      21.73230887 
H      32.44778213      22.08282717      20.98959224 
H      32.60625787      22.19109806      22.76591345 
H      29.77307458      28.11637193      28.15964368 
H      28.95043936      27.02670573      29.31339518 
H      28.34440823      28.68983540      29.07098440 
H      32.08453676      28.21767933      17.47200561 
H      33.04918169      26.83002353      18.07053082 
H      32.21692504      27.91116699      19.23301241 
H      33.12285019      16.62134393      14.48658913 
H      33.75996501      16.43283139      16.15228395 
H      33.54831260      18.06968704      15.45479215 
H      30.17619847       9.95336848      23.88494324 
H      30.97458415      11.21248530      24.87704186 
H      31.10664379      11.26179590      23.09348413 
H      28.60127345      18.34103914      32.30207427 
H      28.31900724      16.68088111      31.68838289 
H      27.23032543      17.37269911      32.93288197 
H      30.08531589      27.66802095      22.94651095 
H      30.09889988      26.03265655      23.66836737 
H      29.37657203      27.40419982      24.57936404 
H      32.23161561      21.49702265      17.18881152 
H      31.71622690      22.00397615      18.82432139 
H      31.98502892      23.24356215      17.55667879 
H      31.36446020      15.07182706      18.80210331 
H      31.00643283      13.99836409      20.20299478 
H      31.10402448      15.77345548      20.43402085 
H      29.06840059      14.07665768      26.69075076 
H      28.80540524      15.30636724      27.98084743 
H      29.28924209      15.82300442      26.33813862 
H      28.17550381      23.05001448      29.76453657 
H      28.68328753      21.84369536      28.54652399 
H      27.94776431      21.29652487      30.08937051 
H      23.99254932      24.08057783      31.67522700 
H      25.37394363      25.21869970      31.83232050 
H      25.47298152      23.81595338      30.70811420 
H      28.88753539      30.64679963      20.83476268 
H      28.27205265      29.25511444      21.80296721 
H      27.22528466      30.67644016      21.51226204 
H      31.43630948      21.35385771      12.90602892 
H      30.69347302      21.96032139      14.43351014 
H      30.01802127      22.45356340      12.84951911 
H      28.46824730      11.22589661      17.47156732 
H      29.50180060      10.48713372      18.74421651 
H      29.30005855      12.27543627      18.65691880 
H      24.75635611      12.36895879      29.13716223 
H      25.74861847      13.02635332      30.48126441 
H      26.08001327      13.52281084      28.78134997 
H      24.84172089      21.37324337      32.52868088 
H      24.76508325      19.68761862      31.94242727 
H      23.82537008      20.17539285      33.39038508 
H      27.00762039      30.62127971      24.75435740 
H      26.57174414      29.40579761      25.99277395 
H      25.84070406      31.04598433      26.04356521 
H      29.84416219      26.97678923      13.91354316 
H      30.49964866      25.33510525      14.21250274 
H      29.89789669      26.31437392      15.58378251 
H      29.99773322      13.67635158      13.74346696 
H      30.27931421      13.13194837      15.42374908 
H      30.18985419      14.87686974      15.06002927 
H      26.08867499       9.38871671      25.78324886 
H      26.46815812      10.77587775      26.85344286 
H      26.88411922      10.85539453      25.11378269 
H      18.23209458      16.51966240      31.71147386 
H      18.53609943      18.28019924      31.61223973 
H      19.44430486      17.27661969      32.78975471 
H      19.69012955      29.49134117      27.98835523 
H      20.25983921      30.07098567      26.39541935 
H      21.19382359      30.45763733      27.87788043 
H      25.49491221      29.76134578      13.66964694 
H      23.83417153      30.04231345      14.27406396 
H      24.22544481      28.51380095      13.43123207 
H      25.26778719      16.51518222      10.03194865 
H      25.09596843      15.18306551      11.21194251 
H      26.67834162      15.48195691      10.41948767 
H      21.86933673       8.21668386      20.56587907 
H      21.47120782       8.84084778      22.19409755 
H      22.89356058       7.76924219      21.96409003 
H      21.69370002       8.35297603      24.77399142 
H      21.14747659       8.30372015      26.47940683 
H      22.47364466       9.41019569      25.98555822 
H      19.69661090      11.69953466      30.70164872 
H      18.41571551      12.46675717      29.71108376 
H      19.25217188      13.40991545      30.98706687 
H      18.99328324      20.17710168      33.19312285 
H      19.08895969      21.90654967      33.64308107 
H      20.42419338      21.14386394      32.71400878 
H      19.55011755      27.89641148      30.44452472 
H      19.36537020      26.87902483      31.90453488 
H      18.21135091      26.70224263      30.54115089 
H      22.10686456      33.06929819      23.52189233 
H      23.03738828      31.64867425      24.12550688 
H      21.45137844      32.06491271      24.85398565 
H      23.80312015      31.56900116      16.81293334 
H      23.72040532      32.76210046      18.14807854 
H      22.25576874      31.81630243      17.70265909 
H      26.37800050      26.51805602      10.26487919 
H      26.98334159      26.18388391      11.92296060 
H      25.89075831      27.56867982      11.63133915 
H      26.71113744      20.92869688       8.85220579 
H      24.96366044      20.76984275       9.22494738 
H      26.07286262      19.37987159       9.48961068 
H      25.85712316      12.82746513      11.57722896 
H      25.88828724      11.17409411      12.26423123 
H      26.67390128      12.52947718      13.14842872 
H      24.29486048       8.09168516      16.44015684 
H      22.66916307       8.84747769      16.52819161 
H      23.44012428       8.18549838      18.00966881 
H       8.96635147      23.72397339      14.49797546 
H       9.58051077      23.72862832      16.19422117 
H       9.10364408      22.19247538      15.41788787 
H       9.56365474      19.32135653      12.65554076 
H      10.54109627      20.68643688      13.30890592 
H       9.47657044      19.74482313      14.39369399 
H       8.45344129      16.07939682      16.12122200 
H       9.89091605      16.88631058      15.39900025 
H       8.79724749      17.80098610      16.47561488 
H       8.18023150      19.26760892      18.75330659 
H       7.21309885      18.62456642      20.11790295 
H       8.61273218      17.69041136      19.47780007 
H       8.02865587      22.00923915      18.22850923 
H       7.36022634      23.32087305      19.24133594 
H       8.28098822      21.97719775      19.99489151 
H      12.37396726      28.66643481      11.87411321 
H      10.94290467      27.94469645      12.67781114 
H      11.85913507      26.99882517      11.46307384 
H       7.86611180      26.71057953      22.97068635 
H       8.60291362      27.77472343      21.73588679 
H       8.83451053      28.12952463      23.47566632 
H       7.13597918      16.58464355      24.77697695 