646
Properties=species:S:1:pos:R:3 i=101 optimized=T E=-10058.2091585851 pbc="F F F" jobid=246_80-Ag-50_0-000003-PBE
Au      21.92107951      20.19558190      20.91463186 
Au      24.77212583      20.16808689      21.82049192 
Ag      20.50552228      22.69997097      20.47452229 
Ag      19.77012223      20.96659596      22.72184510 
Au      20.06550373      18.14490660      21.85856814 
Ag      21.21738094      23.50433579      23.15130821 
Ag      20.43710070      21.75535809      25.40110949 
Ag      20.73848717      18.95143791      24.58775384 
Ag      21.00715719      16.11355412      23.70515114 
Au      21.93029277      16.08926161      20.91901785 
Ag      22.74835512      16.12716736      18.13452867 
Ag      23.08223331      18.89798001      17.22277947 
Ag      23.33605232      21.69254806      16.30921186 
Au      22.66636899      23.47249940      18.61297856 
Ag      21.90334959      25.19850415      20.88968220 
Ag      23.40772910      22.70900623      21.35335958 
Ag      22.64730674      20.97129601      23.60754425 
Ag      22.92226427      18.15401324      22.78920159 
Ag      23.83249549      18.13649591      19.98072966 
Au      24.11606853      20.91878406      19.06837953 
Au      20.91333137      13.99247422      19.00866405 
Au      21.84914647      14.10293099      16.19601144 
Ag      22.12245577      16.87995244      15.28400983 
Au      22.34809870      19.69022165      14.35520107 
Au      22.65611611      22.51413370      13.56491586 
Au      21.97560795      24.31683120      15.82025683 
Au      21.20775779      26.04742655      18.15480455 
Ag      20.50170287      27.78542308      20.51242814 
Ag      25.40516781      22.42569822      14.38845933 
Au      24.79453594      24.20847602      16.69488273 
Ag      24.06570439      25.94903450      18.97792790 
Au      23.26879847      27.67391711      21.31632347 
Ag      22.64744850      26.07616260      23.63459359 
Au      21.89097880      24.33400500      25.83101611 
Ag      21.07556114      22.53111085      28.12986337 
Au      21.39502290      19.73357163      27.38055009 
Au      21.61506370      16.96327085      26.42496775 
Ag      21.87413244      14.11087397      25.60003208 
Au      22.89605917      14.00218927      22.88029653 
Ag      23.72696030      14.02012542      20.03058763 
Au      24.52850771      14.07528786      17.18631336 
Au      24.89125273      16.84653972      16.23542662 
Au      25.17564017      19.61977642      15.33126377 
Ag      23.62326593      18.96930414      25.60429844 
Ag      23.80985020      16.16443193      24.67608043 
Au      24.79530159      16.06517609      21.89141264 
Ag      25.57948630      16.07869919      19.06026168 
Ag      26.02594969      18.84616439      18.09203582 
Ag      26.15778560      21.63697715      17.20293630 
Au      25.60017151      23.44913697      19.47223253 
Ag      24.78789940      25.21109829      21.70016167 
Ag      24.12034650      23.56335440      24.08048943 
Au      23.24415581      21.79396633      26.27411259 
Au      26.25602470      22.75730109      22.23165592 
Ag      25.48449530      20.98419804      24.57005128 
Ag      25.76792577      18.13706620      23.73137476 
Ag      26.70191822      18.06808930      20.87386406 
Ag      26.98904008      20.91683854      19.93857989 
Au      27.62787140      20.13642003      22.70193128 
Au      27.54531202      15.26615092      21.31099474 
Au      28.49377870      17.31252029      18.57755486 
Au      28.78938344      19.87137639      17.68233509 
Ag      28.48235182      23.23112581      18.77448632 
Au      27.75602450      25.03610187      20.78175016 
Au      26.72793030      24.93098860      24.25271872 
Au      26.00386005      23.36603311      26.38126347 
Ag      25.70249298      20.00755178      27.36278528 
Au      25.87535124      17.36890028      26.62398511 
Ag      26.77332745      15.36995504      23.97833251 
Ag      28.57276534      17.50767679      23.02032389 
Ag      29.33254783      19.35485727      20.57550734 
Au      29.00349789      22.34775235      21.54063613 
Au      28.05891056      22.30090387      24.48124321 
Ag      27.79561157      19.30881024      25.41058307 
Au      25.58009356      13.27343162      22.23526110 
Ag      26.35956252      13.27749611      19.26344483 
Au      27.15651356      15.13889488      16.94109483 
Ag      27.53705382      17.88378218      15.82818768 
Ag      27.73745119      20.77936954      14.95890116 
Au      27.52985575      23.64246066      15.85979617 
Au      26.89358676      25.61830537      18.06916624 
Au      25.93591301      27.52020611      20.37984728 
Ag      25.27572159      27.40618023      23.42816831 
Ag      24.46072317      25.80936562      25.86135608 
Ag      23.57610565      24.01269788      28.08603453 
Ag      23.44537178      21.08374294      29.00805389 
Ag      23.59221703      18.13746917      28.37052517 
Au      23.66580648      15.30475809      27.41658647 
Ag      24.71848947      13.51483885      25.16666416 
Ag      24.22487237      11.61145485      15.41789526 
Au      24.08436904      14.81472451      14.34212336 
Au      24.14981202      17.60164369      13.40337227 
Ag      24.44550810      20.39439864      12.54111178 
Au      25.61093146      23.13250252      11.47489737 
Au      24.19834531      25.07415023      14.02411342 
Au      23.35070552      26.79160726      16.22239493 
Au      22.59928553      28.43588747      18.54514962 
Au      22.51788327      30.64334813      20.98074942 
Ag      21.25810471      28.57959746      23.23579878 
Au      20.43046991      26.89145736      25.46791245 
Au      19.70154034      25.03297084      27.68369934 
Ag      19.25230823      23.52258506      30.40163355 
Au      19.34365245      20.46329582      29.24896279 
Ag      19.47464495      17.68086611      28.32093724 
Ag      19.81223805      14.87494673      27.49398904 
Ag      20.40427413      11.83745629      26.96355611 
Au      21.14100214      11.95295822      23.80373614 
Au      21.84136298      11.93753175      20.96500892 
Au      22.74117735      12.00496225      18.12960404 
Au      29.59715079      14.25327483      23.49676066 
Au      31.47402886      18.25002379      18.13734611 
Au      30.84947584      24.89942999      20.03862094 
Au      28.69329862      24.90238705      26.71082882 
Au      27.98695997      18.45293161      28.70810698 
Ag      28.87853463      27.49463394      19.09077251 
Ag      30.21816640      18.71138842      14.93915788 
Au      27.97491710      11.64969328      21.69924897 
Au      25.35886891      16.57313697      30.12882032 
Au      25.90321517      26.40397267      28.38865419 
Au      26.70196135      26.76891708      15.25635103 
Ag      23.32318820      28.61922400      25.53436209 
Au      21.66998486      18.87184369      30.64415332 
Au      24.06618243      10.85939731      23.45693082 
Au      27.07241931      15.65656456      13.69305260 
S      29.65989198      22.79390664      26.31646006 
S      29.53953457      18.34237918      26.95544127 
S      30.74654990      16.26169571      23.12091694 
S      31.78881171      19.53517203      20.06998491 
S      31.09580499      23.59078565      21.96876880 
S      27.86308798      27.05036646      27.22662944 
S      30.80042984      26.31351109      18.16839825 
S      31.41425167      16.98941965      16.15220464 
S      28.68366050      12.11436085      23.91273738 
S      26.64532160      18.48550631      30.65414313 
S      27.99889226      26.45990622      22.81804033 
S      29.79867399      22.02561418      17.03729674 
S      29.03668655      15.03200939      19.34659529 
S      26.72826801      15.01231564      26.44902152 
S      25.97215178      22.18594984      28.56028344 
S      24.00752596      25.89767359      29.67255668 
S      27.44981586      29.33924404      19.74441450 
S      29.42220298      20.19360640      13.23179032 
S      27.40903940      11.01165497      19.51436631 
S      24.07011781      14.64996741      29.75814099 
S      22.65546637      20.90422954      31.35550218 
S      25.07985851      29.72796331      24.28806902 
S      28.26318568      25.32838847      14.21396017 
S      27.97325445      13.89178778      14.98346537 
S      24.50199696      11.09246314      25.77205870 
S      20.57870405      16.79497170      30.38200626 
S      21.50337487      28.33379903      27.11331533 
S      25.16345128      28.42487950      15.93611131 
S      26.22405494      17.20982039      12.13863357 
S      23.52840070      10.18511103      21.25370907 
S      20.19944084      10.18552884      25.21197529 
S      20.82328663      13.11307929      28.95424836 
S      18.33324738      21.46749321      31.26592229 
S      20.32909224      25.64241155      29.95761479 
S      21.14841965      31.05851679      22.84764171 
S      23.89401863      30.44740578      19.07535791 
S      24.75961124      25.32012146      11.64756903 
S      26.46428663      20.97145367      11.15474622 
S      24.16938617      12.61427496      13.23249948 
S      24.38120101      10.31669416      17.45068627 
C      31.33247765      23.08670256      25.62690127 
C      30.88724917      19.51391753      27.37191587 
C      31.72113045      16.61281872      24.63278002 
C      32.84553749      18.55974211      21.20632330 
C      32.60533252      22.57684797      21.75378218 
C      28.95462799      27.69836392      28.55753890 
C      32.22201628      27.46089357      18.39536085 
C      33.12143353      17.07784755      15.46764019 
C      30.14707837      11.02281232      24.14234098 
C      27.75559827      17.91431116      32.00560867 
C      29.69526520      26.57210106      23.50590441 
C      31.59223850      22.09084778      17.43388972 
C      30.82342297      14.94225812      19.75197022 
C      28.43967106      14.73801572      27.06286714 
C      27.56590022      22.27903402      29.47313450 
C      24.67910070      25.00534283      31.13300201 
C      28.06998941      29.96554364      21.35383987 
C      30.53847977      21.65214271      13.30085376 
C      28.96900419      11.19919147      18.56096551 
C      25.28571105      13.28823075      29.57471554 
C      24.00741288      20.46154836      32.51306096 
C      26.40636731      30.12487547      25.49418918 
C      29.94053632      25.96961705      14.56869525 
C      29.79409515      13.93854970      14.79371595 
C      26.14257995      10.33002233      26.07170524 
C      19.25669398      16.86684150      31.65848817 
C      20.59887395      29.93098320      27.01712542 
C      24.74271594      29.26934908      14.35981032 
C      25.67019570      16.14488421      10.74787624 
C      22.51708687       8.67408029      21.51557847 
C      21.44742038       8.89027551      25.58283653 
C      19.62370614      12.53960030      30.21988294 
C      19.25533093      21.08112571      32.80493809 
C      19.21726560      26.98479894      30.52163527 
C      22.16304553      32.08601421      23.98294760 
C      23.38511369      31.79549600      17.94300672 
C      26.17155261      26.45438717      11.35662131 
C      26.09501445      20.56571023       9.40289396 
C      25.78377103      12.24791943      12.43809974 
C      23.51291272       8.72928311      17.15587016 
Au      19.04932069      20.18043577      20.01214254 
Au      16.24311228      20.16785022      19.13761483 
Au      21.23032427      20.95126451      18.17798411 
Ag      20.93194630      18.14159468      19.05669629 
Au      19.79867006      23.49250200      17.78198504 
Au      20.52443483      21.72759255      15.48148441 
Au      20.25351377      18.93380340      16.30692434 
Ag      19.98085640      16.16523652      17.20889707 
Ag      19.08575979      16.08506408      19.97563795 
Au      18.24743728      16.10075446      22.79094853 
Au      17.90057745      18.88826365      23.69157574 
Au      17.66348527      21.69227470      24.51809748 
Ag      18.34984066      23.47811036      22.30712332 
Ag      19.10650704      25.18229533      20.07907753 
Ag      17.61434735      22.69692441      19.57288747 
Ag      18.33787465      20.97771362      17.28165525 
Ag      18.06264291      18.15135468      18.12688217 
Ag      17.16110025      18.10926667      20.94538197 
Ag      16.86356349      20.93067802      21.82719118 
Au      20.05936192      13.96590109      21.88685149 
Au      19.14962045      14.02030208      24.74193847 
Ag      18.82249886      16.81268437      25.60751080 
Ag      18.58900606      19.66778631      26.47571564 
Au      18.30751150      22.48751177      27.33266352 
Au      18.99405630      24.30263435      25.05800972 
Au      19.78900227      26.08480819      22.78330089 
Au      15.56240310      22.40925843      26.41173452 
Au      16.16220926      24.24490134      24.13677478 
Ag      16.95414103      25.97181989      21.95232567 
Au      17.75841371      27.67968457      19.70907954 
Au      18.37384414      26.03752289      17.31806053 
Au      19.09469595      24.28167466      15.08653658 
Ag      19.84814589      22.55559779      12.75330357 
Au      19.45317967      19.77288217      13.44401597 
Au      19.27058481      16.95868764      14.41005463 
Au      19.12625058      14.13369398      15.33946836 
Ag      18.12012501      14.01494184      18.10256358 
Ag      17.29956045      14.02666147      20.89740029 
Ag      16.47466724      14.03199637      23.76916922 
Au      16.02179512      16.79535227      24.70329477 
Au      15.72772403      19.58420712      25.50026890 
Ag      17.33801133      18.94440181      15.34306735 
Au      17.13381379      16.13591326      16.27593784 
Ag      16.16460814      16.05991168      19.03522828 
Au      15.38554961      16.03939869      21.84884475 
Ag      14.92388752      18.82584160      22.77411926 
Ag      14.78551227      21.64268725      23.65461748 
Ag      15.41328462      23.45591125      21.38904839 
Ag      16.22407820      25.19534248      19.18431827 
Ag      16.83906603      23.54411004      16.82585829 
Ag      17.66006652      21.80559077      14.59219236 
Au      14.76620550      22.73128736      18.66715092 
Ag      15.50434881      20.98569234      16.37249680 
Au      15.20556585      18.12894866      17.17197385 
Au      14.27978373      18.05860948      20.06289181 
Ag      13.97228578      20.91615230      20.95285420 
Au      13.36373492      20.13778961      18.19259223 
Ag      13.36052530      15.22766460      19.65899618 
Au      12.37459881      17.31464661      22.29704266 
Au      12.17361111      19.90042777      23.20098634 
Ag      12.56543911      23.22623531      22.06274733 
Au      13.20902021      24.99285709      19.95468531 
Ag      14.28443088      24.96666356      16.75040462 
Ag      15.03457691      23.35452532      14.51147186 
Ag      15.31354769      20.04111156      13.62703794 
Ag      15.08569992      17.27352225      14.31775397 
Ag      14.23234806      15.32467720      16.93557759 
Ag      12.45586103      17.46126722      17.88964128 
Ag      11.61187172      19.31551361      20.28571690 
Au      11.97780854      22.34421051      19.30826295 
Ag      12.96032782      22.34700028      16.42934123 
Ag      13.18246732      19.30207460      15.47199578 
Ag      15.38557597      13.33826268      18.72720335 
Au      14.64093786      13.33021703      21.64571727 
Au      13.79003203      15.06396898      23.94186112 
Ag      13.37067205      17.90666961      24.99229499 
Ag      13.20065335      20.81198015      25.96109099 
Au      13.43912249      23.74418151      24.99032902 
Au      14.08858888      25.62199006      22.67951604 
Au      15.04307310      27.45492771      20.47163344 
Au      15.83935902      27.43289115      17.51303748 
Ag      16.54298085      25.81664770      15.11801690 
Au      17.44899463      24.12273211      12.84149453 
Ag      17.37437416      21.15163310      11.82205462 
Ag      17.27950909      18.14137608      12.58693850 
Ag      17.17335051      15.22513136      13.50520097 
Au      16.35668069      13.46936725      15.88687703 
Ag      16.87428523      11.69589824      25.60731338 
Ag      16.94599631      14.78470400      26.57613491 
Au      16.76456321      17.55956182      27.45752357 
Au      16.51547741      20.36455318      28.27644630 
Au      15.32070580      23.18777133      29.36188266 
Ag      16.79003399      25.02655196      26.89210419 
Au      17.65713564      26.80153344      24.71514481 
Ag      18.35193212      28.52994002      22.42614467 
Ag      18.47203496      30.58817775      20.07550868 
Au      19.72014629      28.56408051      17.74819350 
Au      20.56084956      26.91206872      15.44981999 
Au      21.25042621      25.07548235      13.21369263 
Ag      21.57214126      23.61843937      10.47444594 
Au      21.60688277      20.51603706      11.62692566 
Au      21.44847900      17.70952624      12.48253029 
Au      21.21038118      14.91596683      13.44792769 
Ag      20.43311830      11.91301320      13.73693893 
Au      19.95240244      11.95313408      17.11497667 
Au      19.14243115      11.93904278      19.93555523 
Ag      18.28810444      11.94372847      22.76927477 
Ag      11.35189444      14.50232212      17.54196581 
Au       9.47578511      18.37227938      22.84547270 
Ag      10.30384844      24.74774458      20.74611415 
Au      12.34517443      24.75784908      14.23145465 
Ag      13.19873309      18.33073253      12.26435563 
Au      11.91944066      27.54028391      22.01984609 
Ag      10.71427604      18.80319733      25.97223762 
Ag      12.81053229      12.01411544      19.26317704 
Ag      15.60152634      16.33432919      11.02217967 
Ag      14.99436063      25.99403300      12.59955884 
Ag      14.43199537      26.59259334      25.52909170 
Ag      17.72215356      28.68288813      15.41006482 
Ag      19.19737195      19.09994051      10.38653208 
Ag      17.04674866      10.97934229      17.61136002 
Ag      14.05771876      15.72602850      27.02858728 
S      11.38984375      22.63170959      14.50176395 
S      11.49686005      18.26924612      13.95335287 
S      10.15449377      16.53923165      17.95847532 
S       9.20086064      19.68067321      20.91832101 
S       9.88188561      23.51171450      18.72350063 
S      13.08887575      26.94265217      13.75739106 
S      10.16552818      26.11993309      22.72553607 
S       9.51197957      17.05809273      24.80025770 
S      11.92104054      12.22125054      17.03303136 
S      14.48296493      18.31405446      10.22515298 
S      12.85404516      26.56720751      18.05567795 
S      11.23765564      22.10050039      23.84518519 
S      11.73534191      15.04963471      21.62077816 
S      14.04405605      14.96837029      14.46199337 
S      14.83758659      22.08878006      12.27405113 
S      16.77386271      25.59970871      11.01334124 
S      13.51524613      29.15105891      21.38913665 
S      11.45774721      20.32848067      27.66402917 
S      13.57007297      11.16451436      21.38251087 
S      16.72772775      14.23594887      11.27576797 
S      18.20177091      21.12428976       9.47404004 
S      15.85851709      29.71283209      16.62066102 
S      12.70491590      25.31909820      26.72406985 
S      13.00894101      13.84060870      25.88940793 
S      16.33537073      11.11389343      15.27904668 
S      20.37526798      16.97157469      10.41083040 
S      19.54243036      28.41906356      13.82128651 
S      15.94746938      28.46469976      25.15985533 
S      14.79617332      17.10339388      28.88802303 
S      17.64975479      10.01124764      19.75868957 
S      20.61542616      10.25054068      15.46872570 
S      20.27001457      13.34750614      11.80522040 
S      22.53319881      21.58122082       9.62187394 
S      20.55942968      25.75172907      10.98252573 
S      19.82391401      30.98573198      18.11872208 
S      17.00132620      30.56603193      21.96865057 
S      16.14074311      25.38932929      29.28904581 
S      14.51448617      20.98430857      29.59437943 
S      16.86683190      12.63462058      27.82660286 
S      16.46741736      10.47072712      23.58036252 
C       9.68019691      22.91706731      15.10299153 
C      10.16799069      19.42029285      13.42908050 
C       9.20265430      16.95380976      16.44630384 
C       8.03198518      18.76210844      19.84619483 
C       8.38012633      22.48420920      18.92545761 
C      11.99242451      27.53386547      12.39904861 
C       8.65338131      27.15270710      22.53935490 
C       7.81660199      17.17068066      25.51073872 
C      10.34075714      11.27295308      17.08858049 
C      13.36078889      17.67909082       8.90539886 
C      11.14988666      26.58774616      17.37589248 
C       9.43065141      22.23703672      23.53340605 
C       9.92732778      15.02249959      21.30479832 
C      12.31655755      14.70704151      13.89130535 
C      13.28869840      21.91300248      11.29726400 
C      16.10668217      24.48795078       9.71777547 
C      12.83034663      29.91031140      19.86587067 
C      10.37033168      21.80288367      27.52382252 
C      12.15181911      11.31191317      22.54006475 
C      15.41863935      12.99556478      11.62442095 
C      16.84321811      20.63705472       8.33910564 
C      14.48742693      29.98541567      15.43625192 
C      11.08003258      26.06765961      26.32994254 
C      11.19359681      13.97950173      26.09937459 
C      14.62396615      10.47688396      15.13524184 
C      21.67117180      17.21658279       9.13048724 
C      20.48364848      29.98817313      13.99074205 
C      16.31963724      29.08531097      26.84913463 
C      15.37128550      15.88333884      30.13589498 
C      18.77014206       8.63301551      19.28363806 
C      19.34097822       8.97056881      15.14465022 
C      21.60175555      12.88660149      10.63498146 
C      21.62333927      21.16418736       8.08281569 
C      21.72174977      27.05816099      10.43325050 
C      18.77868471      31.97037071      16.97394503 
C      17.53707443      31.90376656      23.10484779 
C      14.70401231      26.49077993      29.59172679 
C      14.80265030      20.49614654      31.33568959 
C      15.21699153      12.20855763      28.52016923 
C      17.15090185       8.78195973      23.80336070 
H      31.76365345      22.10425600      25.39744010 
H      31.94287978      23.58679389      26.38720995 
H      31.29255399      23.68687106      24.71212285 
H      31.59673531      19.49822755      26.53496372 
H      31.39267166      19.17311627      28.28206342 
H      30.50498079      20.53141437      27.50445825 
H      32.24580185      17.56116396      24.46106853 
H      32.45555478      15.81306934      24.77744032 
H      31.08056176      16.70947599      25.51555896 
H      33.82227074      18.39923854      20.73705391 
H      32.38649405      17.60067732      21.46779310 
H      32.97352321      19.15749493      22.11762478 
H      33.47037264      23.24864000      21.71769144 
H      32.55763350      21.96208337      20.84961435 
H      32.68413916      21.92312072      22.63135597 
H      29.93873789      27.89803693      28.11805679 
H      29.05289119      26.98344431      29.37892041 
H      28.51696038      28.63346606      28.92616137 
H      32.12660278      28.25647102      17.64673657 
H      33.15327022      26.90810893      18.22751130 
H      32.22846263      27.90048164      19.39653106 
H      33.09822165      16.65784516      14.45502447 
H      33.78247359      16.47455489      16.10020419 
H      33.48827080      18.10728734      15.42959372 
H      29.78882255       9.98736283      24.18134847 
H      30.62267067      11.28617004      25.09416583 
H      30.86297039      11.13731227      23.32382243 
H      28.48615438      18.70824280      32.19930851 
H      28.27384061      16.99102921      31.73273651 
H      27.14190936      17.74878203      32.89884368 
H      30.31290767      27.12215719      22.78536441 
H      30.11910336      25.57703873      23.66894965 
H      29.63525906      27.11750305      24.45494057 
H      32.12623084      21.40478775      16.76586350 
H      31.77409019      21.80435770      18.47413560 
H      31.92211189      23.12352593      17.26834883 
H      31.37681158      14.97662231      18.80611851 
H      31.00316553      13.99400737      20.27282222 
H      31.12350080      15.77705396      20.39196164 
H      28.78560085      13.77219719      26.67705531 
H      28.41476464      14.72751670      28.15892019 
H      29.10332950      15.53800952      26.71913363 
H      27.73022906      23.31923770      29.77750201 
H      28.38868060      21.94485583      28.83279353 
H      27.48544358      21.62787636      30.35094570 
H      23.81290729      24.62897872      31.69171437 
H      25.24671159      25.70233489      31.75891284 
H      25.30922289      24.16079741      30.83443853 
H      28.94890289      30.59290194      21.16555738 
H      28.32995936      29.14259807      22.02859868 
H      27.27290155      30.56476442      21.81125203 
H      31.51559788      21.37887407      12.88762066 
H      30.65125955      22.02077219      14.32716771 
H      30.08482062      22.43890237      12.68549674 
H      28.71288659      11.03545664      17.50658466 
H      29.69013507      10.44151469      18.88588909 
H      29.39204281      12.20308023      18.67611225 
H      24.71795913      12.40553936      29.25422691 
H      25.75618435      13.09836293      30.54576063 
H      26.04023322      13.53095930      28.81849622 
H      24.51528379      21.39409023      32.78851769 
H      24.72558808      19.77977223      32.04577168 
H      23.57678076      20.00167940      33.40935502 
H      27.26021283      30.51814545      24.92914953 
H      26.72446874      29.23890169      26.05312897 
H      26.04527123      30.89254875      26.18764130 
H      30.06865345      26.92371030      14.04485175 
H      30.65507410      25.23559121      14.17616378 
H      30.10473646      26.10256984      15.64326409 
H      30.04315775      13.69499178      13.75468125 
H      30.20695226      13.17181376      15.46085615 
H      30.20379069      14.91686364      15.06539399 
H      26.07920751       9.25117555      25.89201625 
H      26.39535991      10.51112531      27.12372771 
H      26.91047785      10.77580004      25.43022795 
H      18.61534272      15.98927647      31.51027952 
H      18.65662954      17.77770731      31.56249486 
H      19.71551338      16.82123960      32.65251012 
H      19.65006147      29.81731834      27.55511538 
H      20.39689254      30.21793971      25.97947261 
H      21.20634744      30.70152633      27.50647669 
H      25.61587112      29.84219895      14.02678401 
H      23.90841521      29.95137907      14.56524687 
H      24.44604051      28.54975220      13.59019768 
H      25.13158839      16.78740764      10.04059317 
H      25.00556312      15.34864623      11.09931271 
H      26.55391636      15.71733283      10.26049792 
H      22.09959290       8.38412322      20.54354082 
H      21.70364072       8.85830896      22.22474414 
H      23.17226668       7.87861378      21.88919035 
H      21.57863296       8.26316970      24.69341557 
H      21.05426206       8.28108318      26.40535505 
H      22.40855499       9.33254639      25.86534205 
H      19.94751759      11.56220168      30.59546624 
H      18.61221297      12.46206573      29.80553617 
H      19.63876128      13.26671001      31.04081165 
H      19.05953316      20.03684956      33.07581502 
H      18.87560944      21.74110536      33.59392874 
H      20.33230375      21.22732231      32.67421803 
H      19.51169602      27.90286189      29.99930055 
H      19.36498844      27.11221533      31.60086205 
H      18.16776620      26.74708182      30.31525617 
H      22.29544436      33.07364335      23.52729176 
H      23.13739769      31.62212937      24.17278110 
H      21.60933335      32.18969488      24.92368638 
H      23.87289097      31.60572527      16.97903649 
H      23.74753791      32.74400639      18.35638739 
H      22.29639407      31.82513748      17.82095205 
H      26.43842579      26.39000053      10.29535558 
H      27.02935668      26.18966985      11.98289668 
H      25.84027438      27.47269340      11.59199378 
H      26.76457971      21.14207694       8.75468297 
H      25.05004997      20.78050469       9.15282767 
H      26.29918522      19.49517180       9.27745766 
H      25.89976724      12.89759784      11.56269770 
H      25.76309796      11.20015417      12.11526458 
H      26.61715940      12.41283500      13.12776407 
H      24.17824766       8.08209844      16.57183975 
H      22.57211724       8.88273600      16.61503152 
H      23.31824428       8.26442028      18.12992278 
H       9.11798884      23.46656307      14.34039047 
H       9.67575668      23.46267523      16.05290641 
H       9.22522577      21.92971722      15.25128593 
H       9.69531557      19.02679293      12.52230850 
H      10.55756921      20.42679469      13.24525923 
H       9.42374316      19.46237435      14.23406465 
H       8.42718070      16.19492638      16.29433912 
H       9.85296838      17.01292569      15.56648198 
H       8.72849440      17.92962339      16.60924778 
H       7.88114010      19.36498792      18.94185642 
H       7.07764867      18.65039865      20.37192179 
H       8.43330580      17.78359007      19.56260445 
H       8.32796459      21.78683359      18.08036721 
H       7.50786019      23.14799779      18.90457588 
H       8.40244602      21.91778064      19.86221427 
H      12.42760620      28.45711759      11.99825727 
H      11.00210140      27.74673231      12.81752049 
H      11.90374486      26.79263092      11.60004231 
H       7.78418957      26.50832422      22.71680322 
H       8.58575740      27.59391739      21.54113947 
H       8.68042761      27.94788895      23.29325386 
H       7.13607922      16.58572819      24.88152075 