699
Properties=species:S:1:pos:R:3 i=73 optimized=T E=-11392.3741647395 pbc="F F F" jobid=279_84-Ag-59_9-000007-PBE
Au      33.10948729      25.41976083      26.03290381 
Au      32.09516530      29.64791705      21.36006930 
Au      34.31684250      28.37390853      25.52068984 
Ag      29.95445581      15.15706144      19.90338924 
Ag      33.75465187      19.69882458      23.80209762 
Ag      26.91727019      23.34430092      13.25307362 
Ag      18.28461677      33.18319826      27.95514594 
Au      28.52793321      30.74555110      18.16431237 
Au      24.92500676      21.24686255      23.28165077 
Ag      26.27613778      23.27703431      24.97833777 
Au      28.15933554      25.10786568      23.66278764 
Ag      23.76464598      21.64236837      29.05886938 
Au      23.32460697      27.90848793      27.02195229 
Ag      26.87295197      23.09686323      22.05208714 
Au      22.38672523      19.56985124      27.38459327 
Au      27.19044870      21.18480243      26.79536282 
Au      22.02284133      21.50310658      22.71708609 
Au      21.06473329      23.59709919      20.83829476 
Au      27.60474185      25.29021518      26.61199551 
Ag      19.97300196      24.05414020      26.67120990 
Ag      25.46970535      21.05394216      20.42538965 
Au      24.23705054      25.75341428      28.84659415 
Au      23.87896944      27.71033642      24.11610124 
Au      26.16440681      27.66022952      27.66806485 
Au      20.90878552      21.93843196      28.39844608 
Ag      22.85709496      23.73336645      27.21239873 
Ag      21.48105212      21.70171425      25.59315120 
Ag      19.52356048      19.85393306      26.85436767 
Ag      25.81553716      19.10687452      25.12709043 
Ag      25.19085439      23.61597995      30.74636866 
Ag      23.04290903      25.41064551      19.60821168 
Ag      20.99831302      27.94614751      23.57089849 
Ag      26.67924980      27.40824716      24.78517526 
Ag      22.62034560      21.35834540      19.84060686 
Ag      21.95202587      25.87501082      25.37362949 
Ag      27.10093014      25.49185947      29.52235567 
Ag      20.13567215      19.69557027      24.00677062 
Ag      25.91286570      25.14529080      20.25136551 
Ag      23.51464230      19.20792326      21.68358831 
Ag      22.29997677      23.96132043      30.07096587 
Au      21.00452830      17.43229931      25.84506423 
Ag      21.58527399      27.71243437      20.61795484 
Au      24.45351959      27.44926574      21.25094491 
Ag      24.54808012      23.13593135      18.57828496 
Ag      28.57805576      23.18876747      28.52020493 
Au      18.63869911      22.00268243      25.06510638 
Ag      26.68094210      21.29888591      29.67767301 
Au      22.38007164      30.04669807      25.20226024 
Ag      27.28310833      27.23107205      21.86447282 
Au      21.78718910      19.73561979      30.28856820 
Au      18.47414706      26.38266826      27.68900530 
Ag      23.14303990      21.72750122      31.94414070 
Ag      21.63904156      23.46102073      17.96660168 
Ag      17.08200927      24.30874843      26.15340796 
Au      27.45069905      22.86382168      19.17905937 
Au      23.84570840      17.15177495      26.36877402 
Au      23.24440323      17.46947929      29.28191175 
Ag      25.22343915      29.79157108      25.83601668 
Au      21.60984815      17.27451415      22.93204501 
Ag      28.72289368      18.81635149      25.74543668 
Au      22.88007439      29.80969199      22.27226637 
Ag      25.33778220      25.37079490      23.11209797 
Ag      20.10716753      25.70184692      18.95748232 
Au      29.52959113      27.16764969      25.40936645 
Ag      19.35348174      24.30512814      29.57488561 
Ag      18.01655716      22.19657051      27.93681239 
Ag      19.94615795      28.32073632      29.36719371 
Ag      23.70392481      25.88004360      31.70881279 
Ag      20.89242119      26.30848771      31.20544204 
Ag      26.36340957      18.95552219      22.23190572 
Au      24.63482930      19.51732037      30.89044727 
Ag      20.37361818      17.66284570      28.68533298 
Ag      28.88567475      24.90010630      20.82983323 
Ag      19.54693617      30.18844276      24.60770026 
Au      25.79033014      29.57863327      22.87572629 
Ag      24.96842529      27.21129652      18.33715393 
Au      28.40119964      20.80723381      21.00619335 
Au      29.00553954      27.43043847      28.31756670 
Au      30.02355062      20.95854936      27.35770140 
Au      18.17583929      23.94234645      20.29551156 
Ag      17.69923002      19.70500250      20.60194104 
Ag      25.60467407      27.78958841      30.52122945 
Ag      28.06741542      23.39266682      31.34257615 
Ag      21.83494527      30.21543898      28.09943911 
Ag      21.77043206      24.09875537      32.90761483 
Au      18.74560350      28.00327956      20.05538172 
Au      16.30827204      22.01459956      21.59691351 
Au      30.47844758      25.05135365      27.17758453 
Au      23.40143876      23.56772162      24.36234218 
Ag      20.08173370      30.01983338      21.66564069 
Ag      16.63278162      20.07514705      26.32888357 
Au      26.71438033      17.02721540      26.91640478 
Ag      29.87214218      25.26250066      30.06105363 
Au      17.56582317      28.45530068      25.84280620 
Ag      16.18061603      26.34774175      24.24208223 
Au      28.61967214      29.20536618      23.53306553 
Ag      27.87579385      26.95369350      19.09349693 
Ag      24.10717004      19.05104169      18.74108041 
Ag      27.34377716      16.74317361      24.05295913 
Au      26.92344478      18.71035563      19.36488438 
Au      25.97617479      21.38756938      32.58108828 
Ag      12.61685461      18.86406114      21.96476236 
Ag      23.14272280      21.12989249      16.95753818 
Ag      26.38687211      29.28088826      19.89485382 
Ag      19.90832732      19.57130740      32.42063244 
Au      26.09096772      17.28695272      29.79613181 
Au      29.17661710      18.66128987      22.87110556 
Ag      27.58268496      29.75289988      29.32408397 
Au      15.25592114      22.41667544      27.38552601 
Au      26.03976045      20.84929282      17.48819790 
Au      24.52742194      23.83205627      33.54464863 
Ag      23.64536286      25.21381363      16.66187645 
Au      17.55844086      18.00435907      28.11802973 
Ag      19.03589548      30.39020909      27.56600199 
Ag      23.54173710      29.48530904      19.41031553 
Au      22.46605233      25.63475540      22.47186292 
Ag      16.13558205      20.18232783      29.32095771 
Ag      27.47663773      19.11671795      31.51115892 
Ag      29.23205255      29.02882778      20.64116694 
Au      16.46396825      24.41249563      29.00981460 
Ag      31.99453036      22.79842860      26.21102237 
Au      16.65606819      21.73481882      18.76296882 
Au      24.92981425      31.62581927      20.79321492 
Ag      22.00737570      31.74040485      20.35237676 
Ag      20.76409384      25.50524081      16.16111629 
Au      24.26611125      31.86722273      24.05064078 
Ag      20.68005635      29.74310561      18.74217826 
Ag      23.04924664      15.04370790      21.63646593 
Ag      30.34279352      22.56993109      19.70891936 
Ag      25.06093473      22.95182259      15.65256503 
Ag      18.75514059      23.71034163      17.32186733 
Au      28.88265323      20.55732180      18.18178818 
Au      17.59741283      22.42158751      30.97224789 
Au      17.11165638      28.64279752      28.74246179 
Ag      27.78391965      16.63287509      21.19985064 
Au      15.58314114      26.78215390      27.00569258 
Ag      18.81173348      15.66691692      27.00569920 
Ag      19.58898108      15.49717833      24.00426470 
Ag      18.02511558      26.71209633      30.77623189 
Au      20.15343666      15.47360264      21.20904002 
Au      27.26698163      31.51533160      24.44741395 
Au      24.80024769      15.19535527      28.44448159 
Ag      23.96706316      23.33881968      21.45972762 
Ag      20.23457098      21.23275120      16.36875352 
Ag      27.86514196      22.66673902      16.13178756 
Ag      31.31751134      20.41579541      21.75187658 
Ag      26.73174988      31.82923345      27.52084225 
Au      25.57430016      14.89826650      25.27732202 
Au      28.64490863      16.24937427      28.93406060 
Ag      25.88733966      14.79878292      22.38056003 
Ag      32.56761458      22.61350509      23.31254132 
Ag      25.64758783      30.51471838      31.37723576 
Ag      22.86703331      30.81509892      30.78146067 
Ag      24.23144128      16.86634600      31.93971992 
Au      31.23071996      17.92528476      24.82504013 
Au      17.15248283      26.06138648      18.55116701 
Ag      31.46190067      23.03016555      29.03437728 
Ag      29.34456660      16.03469907      26.03814869 
Ag      15.54557407      29.21701818      23.94157253 
Au      16.11516972      28.97943978      21.10510310 
Au      17.06041480      31.20744843      25.60422461 
Au      29.49261252      24.83297883      18.02086570 
Ag      30.70922465      18.06166414      27.70976812 
Au      18.51398376      17.52268412      30.83601068 
Ag      24.05200441      19.55394626      33.63351460 
Ag      18.09156193      30.76290830      19.78660528 
Ag      17.52702532      31.01699217      22.66462555 
Ag      14.17486245      27.11432080      22.36027243 
Au      32.56095775      19.99407997      26.52603811 
Ag      24.79579287      25.58347142      25.99168152 
Au      32.90728966      26.66995797      23.17900027 
Ag      25.05392464      20.13390585      14.99334957 
Ag      20.06144617      31.01042922      30.23614414 
Ag      31.71023509      27.68016230      27.22213921 
Au      23.71687724      28.59336115      32.51684639 
Ag      29.94209331      15.92484719      23.06130996 
Ag      22.51499056      16.98329278      34.39989232 
Ag      13.98230562      19.45172632      27.49424523 
Ag      24.16255560      27.85018621      15.59691146 
Ag      15.46358360      17.49797698      30.46806652 
Au      25.79837455      25.63400954      14.74484771 
Au      28.99508183      30.42830021      32.28873561 
Ag      22.85159108      30.12978596      16.78354150 
Ag      21.87497677      21.62794422      34.73836729 
Ag      31.14491488      28.05232996      30.26098542 
Ag      19.57314853      15.03134710      29.76196742 
Ag      22.90334920      25.64538217      13.80645687 
Au      16.16288112      14.81201940      28.07535887 
Au      25.51209165      33.65507087      29.44383549 
Ag      26.56672521      14.67260625      31.01359208 
Ag      28.28031579      13.60704748      24.00273201 
Ag      16.28484075      17.22762211      19.46029288 
Ag      16.08934249      17.34460050      23.16807693 
Ag      20.86487648      15.47383456      17.82522006 
Ag      11.94253079      24.56248593      22.90691896 
Ag      14.71944103      29.95565550      26.95640527 
Au      24.34045228      21.42385695      26.17764428 
Ag      14.86432691      20.04054724      20.18027557 
Au      25.36715169      31.25862067      18.09410504 
Au      28.44192962      20.29771984      14.50098543 
Ag      30.18755196      27.00816938      22.51472646 
Ag      31.01389823      24.87743239      24.26519019 
Ag      31.77567105      24.75886436      21.44963530 
Ag      20.53463705      23.82571797      23.79289098 
Au      25.26782292      14.73433403      16.21603139 
Ag      31.42131878      28.94679127      24.41189130 
Ag      25.70431826      23.44397412      27.88491236 
Au      27.06747459      27.57493231      16.44929740 
Au      20.93567028      31.46088757      33.14980684 
Ag      17.69166089      24.07415516      23.22885118 
Au      22.96511097      19.32535667      24.51874852 
Au      27.75909338      20.97402113      23.90639921 
Au      19.61426075      25.93318780      21.95214796 
Au      25.00899632      30.88355542      14.80945814 
Ag      25.20730369      19.34244248      27.97162870 
Ag      19.04239011      26.10962903      24.82249346 
Ag      20.49537293      28.14329620      26.45460927 
Au      21.35771875      26.02345969      28.26792994 
Ag      29.12842732      23.04893215      25.54853349 
Ag      19.18361585      21.78579243      22.13560335 
Au      24.51189426      17.01119205      23.50664769 
Ag      22.79364918      28.13261627      29.87793052 
Ag      20.68033291      19.52165268      21.09141128 
Au      20.39475774      22.17192194      31.26490203 
Ag      24.75226023      30.01282481      28.72156231 
Ag      18.08754754      28.23955839      22.96354349 
Au      28.12105851      19.01647635      28.61068104 
Au      18.97635831      20.10944006      29.70136449 
Au      29.78421327      22.77310089      22.67995949 
Au      19.65849988      21.62828838      19.19712014 
Ag      18.23952998      17.83257965      25.19495218 
Au      15.76248172      22.21053460      24.44625547 
Ag      16.69948501      26.16945800      21.38134300 
Au      26.53127177      24.92373639      17.40689181 
Ag      28.07239220      29.49484270      26.39414689 
Au      17.23761481      19.92457915      23.45863191 
Au      18.79789927      17.71615406      22.34212283 
Ag      30.67622879      20.74298067      24.52248603 
Ag      22.15695637      27.48980588      17.75065674 
Au      21.24180409      19.35472548      18.24662881 
Au      22.21575913      17.22519926      19.90836631 
Ag      21.89065024      15.39406861      27.68030769 
Ag      19.00015002      24.38899076      32.46171248 
Au      26.43073246      25.59708912      32.47317637 
Ag      14.85063705      24.31752452      22.67979934 
Ag      29.61111144      20.78373574      30.20565675 
Ag      23.71965842      32.05393282      26.85203383 
Ag      22.48238585      15.11892448      24.76990073 
Ag      24.97605842      16.93863201      20.61865086 
Ag      28.39900764      27.71894977      31.18351309 
Ag      19.32450621      17.52617106      19.48579290 
Ag      27.77929883      31.24016505      21.64339707 
Ag      15.33416815      24.10689894      19.81942226 
Ag      21.32763858      17.04440999      31.40878268 
Ag      21.29870715      32.08642855      23.22665155 
Ag      14.18054248      24.38478629      25.43224846 
Au      22.25876875      23.11991729      15.11859594 
Au      30.69734984      26.79807772      19.60676435 
Au      18.39077566      19.52496003      17.75817872 
Ag      22.95748957      18.35278342      16.14660817 
Au      15.57835549      17.44553810      26.05764923 
Ag      30.26815054      29.94168030      28.19533770 
Au      29.72534398      18.26586716      20.03095206 
Ag      13.65648980      21.68002888      22.54389105 
Ag      30.50179211      17.65717107      30.80032710 
Ag      26.71169826      15.94548372      18.57244445 
Au      20.69083502      32.23523063      26.30569854 
Ag      19.27740599      27.89967848      17.09507060 
Au      25.90612353      18.04320479      16.73676851 
Ag      14.49185989      19.56480835      24.39912200 
Au      19.08084385      33.39709298      20.69318590 
Ag      23.90935741      22.03549911      12.90272131 
Au      34.73377387      22.63211714      27.43347124 
Au      29.09282574      32.74702951      29.17467330 
Au      19.28878867      31.02421674      16.48083524 
Ag      23.72264533      15.11576691      18.82716716 
Ag      14.24600097      27.08091921      19.38037001 
Ag      21.07232103      26.79491506      34.18383469 
Au      19.59988357      28.59875045      32.15887044 
S      20.68492123      15.76009260      33.44712798 
S      28.54397359      32.57305857      19.67952254 
S      23.84510787      22.74395159      35.63296023 
S      24.21657869      18.15446501      35.63498376 
S      12.40629237      18.19048121      24.26144541 
S      32.41712321      17.30705958      29.35352041 
S      31.52500714      14.61286403      21.66710325 
S      29.73481111      19.35531480      16.23484942 
S      28.22327666      21.91997427      33.38347258 
S      23.18941204      27.87461502      34.78523238 
S      13.41015457      30.04373341      24.90827780 
S      16.46584085      18.12485889      17.19433363 
S      32.77589771      23.04104700      19.94228660 
S      26.97182493      30.68297497      33.47292471 
S      22.99097022      32.50396827      32.67370567 
S      17.20083266      31.31943707      17.52751819 
S      11.26858136      22.26196627      22.63599785 
S      25.01214818      13.23808890      26.99389634 
S      33.64564491      29.25156836      27.59854549 
S      28.52955296      26.47683814      33.36927127 
S      23.87388871      24.27184670      11.95702813 
S      27.47452444      25.74805987      12.95732672 
S      19.18020412      33.33008411      30.19096863 
S      29.03634938      17.63105245      32.71998762 
S      21.19298344      34.07678305      24.76464964 
S      30.88998516      32.28009170      27.72131685 
S      28.88022296      29.19207181      16.39480201 
S      33.40396177      17.29165022      23.88555139 
S      34.89005952      21.83928791      23.65631861 
S      19.27883778      13.63852731      25.58939596 
S      20.87475467      33.61490583      19.17664191 
S      12.57836146      19.35658385      19.60912017 
S      18.86917499      30.43048441      33.63065417 
S      31.74268283      31.11214658      23.18663257 
S      35.20733787      27.46550770      23.52648561 
S      31.18627823      30.27310777      31.42089956 
S      23.12122899      13.19528649      23.30348725 
S      32.01650811      19.03128262      19.76085649 
S      28.74318583      14.72203290      17.86205410 
S      15.45304316      30.35210809      29.25724596 
S      31.60573812      21.81880516      31.22251237 
S      20.82861738      27.00282334      14.17676526 
S      17.09693447      26.90095359      16.26285327 
S      27.35372816      12.88386948      21.86326022 
S      16.68490953      33.54839900      26.14736292 
S      15.27499354      21.66029058      31.18410665 
S      21.19676996      16.63816328      15.72551875 
S      24.74194210      29.02383426      13.41072157 
S      20.02466599      22.47127688      14.20505329 
S      21.22519964      31.08980950      15.14755406 
S      23.50169181      34.06743360      28.30440304 
S      13.51382985      17.56730116      29.04044968 
S      24.31515326      33.52077645      22.22143027 
S      27.35214114      21.03935863      12.54551100 
S      16.42097106      22.96688554      16.66447163 
S      25.99465898      16.48801712      14.82183782 
S      17.19717069      14.26957356      30.11239903 
S      28.67073967      14.03258567      29.93124241 
S      27.50506265      33.58111202      30.71425071 
S      32.67706978      28.27046332      19.53134564 
S      25.04155233      14.74499397      32.91102857 
S      14.43552334      29.52386841      19.40059912 
S      13.34748050      25.87604812      27.27207526 
S      34.62645586      20.31328088      27.81415710 
S      30.21498378      23.62549493      16.04195623 
S      18.89366529      25.74915398      34.53025355 
S      35.22636194      24.91716907      27.14257002 
S      19.69873287      20.56764383      34.66261876 
S      32.22749193      25.83503060      30.61766639 
S      23.55005610      19.61476466      13.12207420 
S      17.23998975      33.44882534      22.15527971 
S      15.63032833      26.05044863      30.63633730 
S      11.75816300      26.96434397      22.88132743 
S      24.45519117      13.04225100      17.63463019 
S      13.11368884      24.94417863      19.13197584 
S      21.61262613      13.66206179      29.42939434 
S      16.77406808      17.53974549      32.54355464 
S      15.76235255      15.74485767      21.31218477 
S      14.98473031      15.05716297      26.04104925 
S      25.30001895      32.78029457      16.17562695 
S      29.65686461      13.58328963      25.99433901 
S      20.15336584      13.78403096      19.44836611 
S      27.06267401      33.59573510      25.67843813 
S      12.93381780      21.69525568      27.14945613 
C      21.31854764      14.04149123      33.29334567 
C      30.31586794      33.00720630      19.89918952 
C      23.22586112      24.07957917      36.73372812 
C      23.40369527      19.01281233      37.04143596 
C      10.97504974      19.16014192      24.88695792 
C      32.54944622      15.48563639      29.14520389 
C      31.29075563      12.79188055      21.78348528 
C      31.42342631      20.01491179      15.95988036 
C      27.98945570      22.90387573      34.91258177 
C      22.80578814      29.38818238      35.74782226 
C      13.30358902      31.80957574      24.41405076 
C      17.06071596      16.74775395      16.13250741 
C      33.40590896      23.95396560      18.47690266 
C      26.93915806      32.40705110      34.09371849 
C      22.52730940      34.17077853      32.05841246 
C      16.95208904      33.13421363      17.39084648 
C      10.64340073      22.27701546      20.90474777 
C      26.50507865      12.28739703      27.45609685 
C      34.75225229      28.42372955      28.80979219 
C      28.09168442      27.51860147      34.81596058 
C      22.57716035      24.22814628      10.65188927 
C      26.70767396      26.39538821      11.42691242 
C      17.67372220      33.30236333      31.24666135 
C      29.89621331      18.58005866      34.03656958 
C      19.68514995      35.08913891      24.52608352 
C      32.38931274      32.65227802      28.71397715 
C      28.72047263      30.14026599      14.83432122 
C      34.36913724      16.66862671      25.31718559 
C      35.72886151      21.87298606      22.02117781 
C      17.74801823      12.73608928      25.11926466 
C      21.74848564      35.14940701      19.68550971 
C      12.63191174      17.77341814      18.67899077 
C      18.95108116      29.81054557      35.35561448 
C      33.37867268      31.83320489      23.61525711 
C      35.56208957      28.86381470      22.39935702 
C      32.22877597      29.94545453      32.90271740 
C      21.67034584      12.13779921      22.91610976 
C      33.16146663      17.66916937      20.19079589 
C      28.35891515      12.93007924      18.00450973 
C      14.20291417      29.56126673      30.34485825 
C      32.99225431      20.61872034      31.16366661 
C      19.56401531      26.30244641      13.04124530 
C      15.78341457      28.16345966      16.06576712 
C      26.35115609      11.38096454      22.20526630 
C      15.11626902      33.74308563      27.08727566 
C      15.17996846      20.78691304      32.79631950 
C      21.82650094      15.42531493      14.49901700 
C      23.23757571      29.37372346      12.42034880 
C      20.19714756      21.26939962      12.82713360 
C      21.58397999      32.89293420      15.13227114 
C      23.92039352      35.44267102      27.16170192 
C      12.17797950      18.23005214      30.11971540 
C      25.80960378      34.57398379      22.31515789 
C      28.73275291      21.18661488      11.33431464 
C      16.41429679      21.70434434      15.33831243 
C      27.77068829      16.17964457      14.48570539 
C      17.31875170      12.43409378      30.07658552 
C      29.82898646      13.97696010      31.35720979 
C      27.95807938      35.36097920      30.84911937 
C      32.51154063      29.31463848      18.03004761 
C      26.16905665      15.18566564      34.29762673 
C      12.96361794      30.11829154      20.32625288 
C      12.12421024      27.07219706      26.62174704 
C      36.07651288      19.69667626      26.87187907 
C      30.40089550      24.93079214      14.76891409 
C      19.04723274      24.60313305      35.96182841 
C      36.49974480      24.84886541      25.82171319 
C      19.68536106      19.20705089      35.89577029 
C      32.39474233      25.55053089      32.42535163 
C      24.52490126      18.70949067      11.85587231 
C      15.74290518      33.59084633      21.10022038 
C      15.24279230      25.21581223      32.21996687 
C      10.74181767      27.23295828      21.37138428 
C      22.97617969      12.33922435      16.80032078 
C      12.97140677      24.64563925      17.32330177 
C      21.07390573      12.10842706      28.61407740 
C      16.76030328      15.88521317      33.33053301 
C      13.98163463      15.30233079      21.23551093 
C      13.19969972      14.95222615      26.44946877 
C      27.00382386      33.39837521      15.89155517 
C      31.38484797      13.25251903      25.46727641 
C      18.38780032      13.40406494      19.10719665 
C      28.70612445      34.41020394      25.69833806 
C      12.16594554      22.17385420      28.74694053 
H      22.40579971      14.02574314      33.15839028 
H      21.05164211      13.50560412      34.21150497 
H      20.84071504      13.56842736      32.42726942 
H      30.71476268      33.37015010      18.94558107 
H      30.36161995      33.80864496      20.64636285 
H      30.90071809      32.15149780      20.25664204 
H      24.08787709      24.66678803      37.07100549 
H      22.52460620      24.74144145      36.21295967 
H      22.73347936      23.61639916      37.59645316 
H      23.19309342      18.27451874      37.82339703 
H      24.10116169      19.76820151      37.42089628 
H      22.47457939      19.50838474      36.74089851 
H      11.07748287      19.25973131      25.97408561 
H      10.93097173      20.15547055      24.43148952 
H      10.06130002      18.60347465      24.64922480 
H      33.27496388      15.29303122      28.34579335 
H      32.91812945      15.04490707      30.07854124 
H      31.58610600      15.03884861      28.87530927 
H      30.23135987      12.52240203      21.85938556 
H      31.72554778      12.33287153      20.88852249 
H      31.82550240      12.43076540      22.66939747 
H      31.40721066      21.10363627      15.83795889 
H      32.01324702      19.74239222      16.84476066 
H      31.83803448      19.53411402      15.06666379 
H      27.49484235      22.28379594      35.66799585 
H      28.98699467      23.19903045      35.26015244 
H      27.39154314      23.80097628      34.71236573 
H      22.13352067      30.06046468      35.19608396 
H      22.34743296      29.09342276      36.69904836 
H      23.75084213      29.90893684      35.94285472 
H      12.63465244      32.33550665      25.10506567 
H      14.28838977      32.28957505      24.41046144 
H      12.87705754      31.84694248      23.40437862 
H      17.23353230      17.14635964      15.12596798 
H      17.99551438      16.31783139      16.50892845 
H      16.27942525      15.97997182      16.09591237 
H      32.62642595      24.60100718      18.05815202 
H      34.26877817      24.55772020      18.77971163 
H      33.71272494      23.21889734      17.72391696 
H      27.23445715      33.11033811      33.30838228 
H      25.91000057      32.61969872      34.40818436 
H      27.61721813      32.48648810      34.95091058 
H      21.66953042      34.12228542      31.37833168 
H      22.28819611      34.80297805      32.92082694 
H      23.39563352      34.57484260      31.52295353 
H      16.00604034      33.36893188      17.89377853 
H      17.76876901      33.68654557      17.86875517 
H      16.87734201      33.40745684      16.33268005 
H      11.30664839      22.85035824      20.24731063 
H      10.57822544      21.24286293      20.54701130 
H       9.64676906      22.73255313      20.91074357 
H      27.37820003      12.92987523      27.60017675 
H      26.28494259      11.75404964      28.38873231 
H      26.70913151      11.56791677      26.65363139 
H      35.73580866      28.90499786      28.77374746 
H      34.30333196      28.55796080      29.80181236 
H      34.84794244      27.35284142      28.60170425 
H      28.06814501      26.87407531      35.70246568 
H      28.86037982      28.29142091      34.93417727 
H      27.11997166      28.00337866      34.68155254 
H      22.51278852      25.22535086      10.20032547 
H      22.86487755      23.50133879       9.88360369 
H      21.60148406      23.95771906      11.06908456 
H      25.82755056      25.80489973      11.14856070 
H      26.41822003      27.43895000      11.59954390 
H      27.46489414      26.34043045      10.63524970 
H      17.98603757      33.12782864      32.28330879 
H      17.17632491      34.27592625      31.17004969 
H      16.98449853      32.50925890      30.93688865 
H      30.80006799      18.03586242      34.33172908 
H      30.15377642      19.58835921      33.69574569 
H      29.21592143      18.65567372      34.89300875 
H      18.79492656      34.47473379      24.36360854 
H      19.53955483      35.71466019      25.41442190 
H      19.84768416      35.72560765      23.64762625 
H      32.30179274      32.24302905      29.72625277 
H      33.23878735      32.18419500      28.20251213 
H      32.52137311      33.73902343      28.75183902 
H      29.48836250      30.92214445      14.81706218 
H      28.88950716      29.43555701      14.01091512 
H      27.71894345      30.58070117      14.73304976 
H      34.11981327      15.60893278      25.44954168 
H      35.43683139      16.76594238      25.08968936 
H      34.12543747      17.21914150      26.23253123 
H      35.00220201      21.81409849      21.20259487 
H      36.26905666      22.82463360      21.94840698 
H      36.44078948      21.04297556      21.96121929 
H      17.29433195      12.31129830      26.02232556 
H      17.02182379      13.39540079      24.63439700 
H      18.03043955      11.92910555      24.43275872 
H      22.62372053      35.24817180      19.03180062 
H      21.08215775      36.00669668      19.54249860 
H      22.08178262      35.09273804      20.72700554 
H      12.83287175      18.01224204      17.62829782 
H      13.42008324      17.10716619      19.04624456 
H      11.65759592      17.28002725      18.76717325 
H      18.88446997      30.66690667      36.03617418 
H      18.09319055      29.14409405      35.50277747 
H      19.87386459      29.25133428      35.54058264 
H      34.09776766      31.06202354      23.91308691 
H      33.76553025      32.41147143      22.76928997 