699
Properties=species:S:1:pos:R:3 i=149 optimized=T E=-11709.4962864024 pbc="F F F" jobid=279_84-Ag-90_0-000007-PBE
Ag      33.08918312      25.43950336      25.96166677 
Ag      31.99447794      29.14655564      21.52429778 
Ag      34.37689880      28.15436492      25.46138800 
Ag      29.72198318      15.05813630      19.63585496 
Ag      33.75052106      19.55025297      23.79510953 
Ag      27.19249893      23.27996568      13.41389013 
Ag      18.02107502      33.01493781      28.49301617 
Ag      28.36833093      30.73239096      18.27897241 
Ag      24.90124737      21.22437952      23.27910679 
Ag      26.27595472      23.23378184      24.94279205 
Ag      28.15258322      25.05061136      23.67658349 
Ag      23.76590581      21.59289240      29.02441138 
Ag      23.32242343      27.86424013      27.02426302 
Ag      26.84404228      23.05111223      22.04398262 
Ag      22.36174816      19.54672546      27.37556688 
Au      27.16203793      21.12462121      26.74605107 
Ag      22.01144800      21.51020997      22.74201025 
Ag      21.02969454      23.58517904      20.90165856 
Ag      27.63401139      25.27016338      26.59046227 
Au      19.95048088      24.02007361      26.69862117 
Ag      25.43891611      21.04658749      20.41522459 
Ag      24.23256456      25.73642606      28.83117218 
Ag      23.83575156      27.66007957      24.13077855 
Ag      26.17204600      27.56770354      27.62417916 
Ag      20.89595834      21.85912929      28.42232362 
Au      22.85268277      23.70866162      27.23080532 
Ag      21.45968899      21.67870258      25.60355897 
Ag      19.50061039      19.83566354      26.85820895 
Ag      25.79888778      19.09957195      25.08881487 
Ag      25.18473773      23.59778411      30.69853078 
Ag      22.99106100      25.38481355      19.63375284 
Ag      20.96731686      27.92439661      23.57467253 
Ag      26.65580116      27.32511435      24.76188366 
Ag      22.57954408      21.35220886      19.87939060 
Ag      21.91221526      25.85824865      25.40218167 
Ag      27.12337792      25.45293293      29.46839570 
Ag      20.10361256      19.69093236      24.02044551 
Ag      25.83573013      25.09292940      20.23606945 
Ag      23.48400417      19.22305812      21.67450575 
Ag      22.29695028      23.86799221      30.08147513 
Ag      20.99131112      17.51722347      25.78089039 
Ag      21.50495722      27.64729902      20.69431368 
Ag      24.36904419      27.39423493      21.29083351 
Ag      24.49675115      23.12034382      18.57959641 
Ag      28.57601962      23.14128468      28.46831014 
Ag      18.60532354      21.98872004      25.08800415 
Ag      26.65261449      21.23411456      29.62178717 
Ag      22.37448065      30.01413706      25.14977258 
Ag      27.19933991      27.11388739      21.87409086 
Ag      21.77687234      19.72986225      30.25382964 
Ag      18.45438267      26.36845480      27.70064959 
Ag      23.09814088      21.73684495      31.88830876 
Ag      21.58228497      23.41238138      18.01154161 
Ag      17.05947980      24.30325484      26.18229494 
Au      27.41080193      22.80726513      19.14929465 
Ag      23.84322497      17.18844739      26.29856222 
Ag      23.26254581      17.46806606      29.20598059 
Ag      25.20832023      29.70344677      25.74857794 
Ag      21.57976129      17.29943088      22.90153044 
Ag      28.69112609      18.78448269      25.67175189 
Ag      22.82073671      29.75496312      22.29705863 
Ag      25.30355191      25.32260123      23.11525279 
Au      20.07175553      25.66978299      19.02321680 
Ag      29.58742076      27.11296075      25.36737234 
Ag      19.34339205      24.21472389      29.53778526 
Ag      17.98635855      22.18257408      27.93887957 
Ag      19.92331715      28.31784740      29.32813202 
Ag      23.65701262      25.86310133      31.67236525 
Ag      20.87360386      26.18513323      31.05495203 
Ag      26.36696908      18.96758864      22.18965972 
Ag      24.61075109      19.48688010      30.79065448 
Ag      20.37875328      17.72484831      28.68569557 
Au      28.82139433      24.82030387      20.78674920 
Ag      19.51736921      30.20857818      24.62908260 
Ag      25.71297933      29.50611151      22.86261408 
Ag      24.92417186      27.19195186      18.32672803 
Ag      28.37647394      20.74433675      20.95834607 
Ag      29.04406379      27.36015548      28.24735118 
Ag      29.98773957      20.86354988      27.31823748 
Au      18.12787139      23.92252108      20.35419214 
Ag      17.74612989      19.71758439      20.59745446 
Ag      25.60618268      27.73151945      30.45730047 
Au      28.03222965      23.38372582      31.27774423 
Au      21.85404297      30.13964619      28.09716949 
Ag      21.67183903      24.05974351      32.95001741 
Ag      18.65978632      27.93667540      20.13220307 
Ag      16.31918368      21.99965929      21.62193037 
Ag      30.48476646      25.01615476      27.16351737 
Ag      23.39750119      23.51637592      24.35782946 
Ag      20.00483477      30.01181229      21.69163968 
Ag      16.65770042      20.07770619      26.34792456 
Ag      26.66136475      16.96224296      26.89001768 
Ag      29.91637605      25.18866729      30.03641089 
Ag      17.56454346      28.44711137      25.89934775 
Ag      16.18276812      26.31308965      24.33046693 
Au      28.49781273      29.12998659      23.45701181 
Au      27.78802953      26.88811083      19.05471268 
Ag      24.06187239      19.04472205      18.74734932 
Ag      27.31805715      16.80134471      23.97884951 
Ag      26.87095899      18.75662283      19.30753572 
Ag      25.90838297      21.35387240      32.53476945 
Ag      12.85726329      18.65801409      21.93432407 
Ag      23.06644854      21.10671684      16.98957306 
Ag      26.30089284      29.16273425      19.94373184 
Ag      19.92077320      19.53552995      32.38276051 
Ag      26.04615140      17.13942799      29.72358655 
Ag      29.20276442      18.66698890      22.75004952 
Ag      27.57473001      29.66203183      29.21255757 
Ag      15.24928454      22.42654146      27.38509088 
Ag      25.96300106      20.86344027      17.46083425 
Au      24.48313832      23.81633415      33.44038191 
Ag      23.58745131      25.20389889      16.68234467 
Ag      17.55276978      17.99576553      28.14567469 
Ag      19.03754232      30.43062692      27.49374550 
Ag      23.44989588      29.42515998      19.45324423 
Ag      22.42301933      25.60787123      22.52311040 
Ag      16.10308344      20.22664904      29.22494015 
Ag      27.40568961      19.07634962      31.40427702 
Ag      29.11959255      28.93087163      20.61991982 
Ag      16.45087266      24.50655045      29.02071040 
Ag      31.94370642      22.74519397      26.10140601 
Ag      16.73043796      21.74623541      18.75930709 
Ag      24.85117439      31.47885689      20.86875657 
Ag      21.95816692      31.74484524      20.38531921 
Ag      20.71689704      25.47908062      16.21607471 
Ag      24.29609840      31.82174680      23.92494466 
Ag      20.60260559      29.70503472      18.86065074 
Ag      23.06210741      15.07504585      21.64503631 
Ag      30.28174466      22.55413448      19.67165121 
Ag      25.04812108      22.94011795      15.66310304 
Ag      18.70703617      23.69903936      17.39375220 
Ag      28.79851288      20.60449482      18.10107884 
Au      17.50517989      22.42734771      30.88704929 
Ag      17.10346658      28.66752483      28.76394755 
Ag      27.81123973      16.71757362      21.08260441 
Ag      15.58406959      26.75318785      27.10508227 
Ag      18.91723052      15.74112775      27.07356561 
Au      19.60551075      15.52219886      24.04488774 
Ag      18.08097360      26.59586580      30.63966540 
Ag      20.14763216      15.40895673      21.25899479 
Ag      27.23572786      31.47407408      24.41327484 
Ag      24.68400944      15.07397798      28.25047689 
Ag      23.92803362      23.32398416      21.47605856 
Ag      20.19608579      21.25575968      16.41011350 
Ag      27.86518720      22.72249606      16.18402762 
Ag      31.28379420      20.36408838      21.69938854 
Ag      26.71689614      31.72130483      27.37383106 
Ag      25.47496096      14.93500621      25.20960791 
Au      28.58606564      16.14190714      28.80639876 
Ag      25.94549820      14.84629341      22.29712773 
Ag      32.54536884      22.53652337      23.29955993 
Ag      25.71969762      30.47811499      31.33079880 
Ag      22.91761294      30.91131335      30.75500794 
Ag      24.21662109      16.93470238      31.90847746 
Ag      31.19898675      17.86749007      24.74347580 
Ag      17.05757299      26.06229074      18.60136670 
Au      31.47308826      22.87947839      28.83728719 
Ag      29.27330784      15.98952833      25.92525602 
Ag      15.54997581      29.16783813      23.96854556 
Ag      16.05168854      28.90003770      21.08715105 
Ag      17.02419433      31.23536976      25.55956956 
Ag      29.33879680      24.79769494      17.89465456 
Ag      30.58718855      17.98079665      27.62150036 
Ag      18.55663869      17.46423261      30.85229572 
Ag      23.84391277      19.52559940      33.49734153 
Ag      18.00344464      30.66329085      19.72321878 
Ag      17.46964880      30.94887960      22.65023612 
Au      14.16047595      27.02187923      22.47168740 
Ag      32.49587735      19.87730698      26.46053477 
Ag      24.77631770      25.54282342      25.99231978 
Ag      32.80275337      26.70885981      23.24983238 
Ag      24.78008419      20.08411128      14.95269847 
Ag      20.07193847      31.06715075      30.11346478 
Ag      31.72972782      27.69916343      27.17801493 
Au      23.77632815      28.59020859      32.51877204 
Ag      29.83150200      15.89658979      22.99045041 
Ag      22.38532034      17.00068432      34.34512876 
Ag      13.90576999      19.75166495      27.29826185 
Ag      24.07691741      27.90773226      15.69184005 
Ag      15.39282651      17.61733238      30.35277173 
Ag      25.63247859      25.70747071      14.74437751 
Ag      28.73133189      30.56682632      31.99082041 
Ag      22.61595854      30.13024110      16.84389210 
Au      22.00657479      21.65447882      34.84706927 
Ag      31.11074791      28.19834005      30.25922002 
Ag      19.94759361      15.00649575      29.74941914 
Ag      22.74068085      25.72144386      13.83496277 
Ag      16.36340095      15.08610484      28.39746777 
Ag      24.98494872      32.81963334      29.47400477 
Ag      26.54551987      14.58596439      31.07554493 
Ag      28.52550510      13.49563015      24.05221624 
Ag      16.33032378      17.32505773      18.98509855 
Ag      15.89853131      17.96924157      22.09058716 
Ag      20.76860589      15.51985514      17.78032034 
Ag      11.90807519      24.37153956      23.06340417 
Ag      14.67552485      30.01471052      26.86543656 
Ag      24.30696927      21.37373543      26.16033335 
Ag      14.94836186      19.99596070      20.15237957 
Ag      25.30300681      31.00727867      18.04786392 
Ag      27.80392967      19.88298389      15.33794440 
Ag      30.07875662      26.93133492      22.49142202 
Au      30.97563944      24.80273513      24.25893386 
Ag      31.68079764      24.70906101      21.47473047 
Ag      20.50901471      23.80789994      23.81355884 
Ag      25.09181973      14.97656046      16.12061529 
Ag      30.70065495      29.76557231      25.17265167 
Ag      25.71471462      23.41187989      27.84180869 
Ag      27.01909895      27.64633887      16.42820250 
Ag      21.16523414      31.48424594      33.15329045 
Ag      17.65901053      24.04743533      23.28584262 
Ag      22.93586422      19.34944064      24.50222469 
Ag      27.74729604      20.94221145      23.85429861 
Ag      19.56299678      25.88280014      21.97365377 
Ag      24.96577085      30.85153314      15.03084353 
Ag      25.19208617      19.25962375      27.93218401 
Ag      19.03797795      26.10502427      24.85133718 
Ag      20.47428292      28.14099564      26.44044023 
Ag      21.37440967      26.01571084      28.25018517 
Ag      29.10030205      22.98088720      25.53943833 
Ag      19.17684650      21.79525262      22.17622443 
Au      24.48818094      17.04826269      23.46895756 
Ag      22.78067457      28.10727381      29.93159870 
Ag      20.63796849      19.50108697      21.15279918 
Ag      20.31953300      22.11463671      31.23222030 
Au      24.75948310      29.94408014      28.68433552 
Ag      18.05419961      28.21049982      23.00519036 
Ag      28.05229540      18.92521692      28.56562858 
Ag      18.93161663      20.07879421      29.71949002 
Ag      29.72963273      22.70575397      22.63563603 
Ag      19.60065443      21.61827491      19.25300003 
Ag      18.12047329      17.80226416      25.22178554 
Ag      15.75660209      22.19045678      24.50066467 
Ag      16.64340767      26.13742269      21.44010656 
Ag      26.45350386      24.93363937      17.36309584 
Ag      28.05541783      29.38016122      26.31438113 
Au      17.26334255      19.95046135      23.48812117 
Ag      18.76945432      17.66552373      22.40427291 
Ag      30.62674376      20.67316057      24.45551957 
Ag      22.08159490      27.46972354      17.81392148 
Au      21.14114469      19.38956590      18.32399791 
Ag      22.13150471      17.23648772      19.95914140 
Ag      21.86427050      15.51128476      27.52901043 
Ag      18.90261041      24.35554057      32.36268619 
Ag      26.43666070      25.61720502      32.40899717 
Ag      14.82067750      24.23708377      22.75124990 
Au      29.49274074      20.72911836      30.17802645 
Ag      23.79050647      31.92442551      26.77482267 
Ag      22.47289042      15.17124535      24.70053637 
Ag      24.94112057      16.96617553      20.58405481 
Ag      28.37750714      27.67480732      31.10974318 
Ag      19.29146166      17.50462433      19.52623481 
Ag      27.70401349      31.17152708      21.59241252 
Ag      15.29280533      24.06038462      19.87857512 
Ag      21.36822671      17.13517329      31.40447537 
Ag      21.22545743      32.06418455      23.25365762 
Ag      14.12969481      24.41813097      25.52355883 
Au      22.26349304      23.12616518      15.13119637 
Ag      30.61585750      26.74070374      19.61465631 
Ag      18.34069075      19.49622290      17.72764838 
Ag      22.82509312      18.28170799      16.29425513 
Ag      15.45025183      17.47196733      26.23766202 
Ag      30.24066065      29.97244319      28.03372587 
Ag      29.76325087      18.35700832      19.80153955 
Ag      13.70078851      21.58978393      22.54567799 
Ag      30.26223491      17.73329582      30.73900784 
Ag      26.62098007      15.98534531      18.54009285 
Ag      20.91094678      32.29049107      26.40058567 
Ag      19.22403324      27.86754649      17.19621257 
Au      25.77858967      18.05365691      16.69005135 
Ag      14.60727121      19.45997351      24.35228780 
Ag      19.03496917      33.14141718      20.99476334 
Ag      23.94664977      22.31657243      12.82543741 
Au      34.53101228      22.63292738      27.53052731 
Ag      28.95586608      32.56673502      29.02454468 
Ag      19.36647551      31.06686409      16.58394026 
Ag      23.67147035      15.15004335      18.83182802 
Ag      14.04390038      27.06695652      19.49429308 
Ag      21.98114121      26.80689197      34.14759114 
Ag      20.84943364      28.81881602      32.02830808 
S      20.47916294      15.88069409      33.40832517 
S      28.34682266      32.68410616      19.73588079 
S      24.04117709      22.63140246      35.57995989 
S      24.18466433      18.10162743      35.50431752 
S      12.71633553      17.81504587      24.19218327 
S      32.26223840      17.42661296      29.36467235 
S      31.36213654      14.79428135      21.38003684 
S      29.52659979      18.67522391      16.72601812 
S      28.23276808      21.94702797      33.28132855 
S      23.97812241      28.06480308      34.91529466 
S      13.42401486      30.15370070      24.79548831 
S      16.33582606      18.37325118      16.80028300 
S      32.72234510      23.02726292      19.97429696 
S      26.85281110      30.87405384      33.49103718 
S      23.08811375      32.75520576      32.50327893 
S      17.21663640      31.56750242      17.55300201 
S      11.28938423      22.04654275      22.85399732 
S      25.18137213      13.07065141      26.80265959 
S      33.72776093      29.17898969      27.52855261 
S      28.54406205      26.55397111      33.34037882 
S      24.10022164      24.61883990      12.07817670 
S      27.70757683      25.65899168      13.40451270 
S      18.86518310      33.11516532      30.74860597 
S      28.79079596      17.45662344      32.66830452 
S      21.09299586      34.08764246      24.67876677 
S      30.83382357      32.32316232      27.49192512 
S      28.89542729      29.27278183      16.41494887 
S      33.45510209      17.15099301      24.01000046 
S      34.85760351      21.69656033      23.61232493 
S      19.30086115      13.67513084      25.64712753 
S      20.73458799      33.62836094      19.33823602 
S      12.60950463      19.38029112      19.63957031 
S      19.35486753      29.99163221      33.67888053 
S      31.71493746      30.87951735      23.19579372 
S      35.20771279      27.23683181      23.40039260 
S      30.97875975      30.52090136      31.09930564 
S      23.11589859      13.20112986      23.27650223 
S      32.17059077      19.07620099      19.77188250 
S      28.42961667      14.53414930      17.67196965 
S      15.37238134      30.39588473      29.14730003 
S      31.49775188      21.84813825      31.08840367 
S      20.69452850      27.05531721      14.29325930 
S      17.02502240      27.05839706      16.32926768 
S      27.36960617      12.84412371      22.03889838 
S      16.79735063      33.52414984      26.48949368 
S      15.13211502      21.76056172      31.00520679 
S      20.99657522      16.72368714      15.68783638 
S      24.84248542      28.97227666      13.54379460 
S      19.98550373      22.53897050      14.27513184 
S      21.28284872      31.32683700      15.13869426 
S      23.02973094      33.78494575      28.24147918 
S      13.45108626      17.89532987      28.91263020 
S      24.15861269      33.52950338      22.09005012 
S      27.47532973      20.88818135      13.08777402 
S      16.35672596      23.15224520      16.73426659 
S      25.87770878      16.66947719      14.60358373 
S      17.62737179      14.31380233      30.31055624 
S      28.58011308      13.96113841      29.93222823 
S      27.19358854      33.52370990      30.37890928 
S      32.77305477      27.94603793      19.55523607 
S      24.85817437      14.70995742      32.78916253 
S      14.28631555      29.48796809      19.44049893 
S      13.23982495      25.97046607      27.29565294 
S      34.48967036      20.30486722      27.87909878 
S      30.33921672      23.25837891      16.23043542 
S      19.88748650      25.51731353      34.41117314 
S      35.12992521      24.89552708      27.23801795 
S      19.84825127      20.72017370      34.57687258 
S      32.18507792      26.01934327      30.60020175 
S      23.49648643      19.93033936      12.85813658 
S      16.98020872      33.34769577      22.27473512 
S      15.61942163      26.25960661      30.63874519 
S      11.77337433      26.78301030      22.99343861 
S      24.25820053      13.17109766      17.47047497 
S      13.05790707      24.86542887      19.21746310 
S      22.25219386      13.97210039      29.46867393 
S      16.66350323      17.65529465      32.42670878 
S      15.95649321      15.82682042      20.85819140 
S      15.02417270      15.05388577      26.38926685 
S      25.23538953      32.82788759      16.37731776 
S      29.96581648      13.59674083      25.98689391 
S      20.20615262      13.78607832      19.38559038 
S      26.81619887      33.58243705      25.64726618 
S      12.87953177      21.98179141      26.68792045 
C      21.01560529      14.12618818      33.28867339 
C      30.10971193      33.14310806      20.00455435 
C      23.53883112      23.96147310      36.74245058 
C      23.45821892      18.91453486      36.98366068 
C      11.21205777      18.64175111      24.85352736 
C      32.50497791      15.60763510      29.25376596 
C      31.37061388      12.96816695      21.59827384 
C      31.18238902      19.17692694      16.10540551 
C      28.04427584      22.98815730      34.77778519 
C      23.54352280      29.62493781      35.77602848 
C      13.42842182      31.93072967      24.32394567 
C      16.90433746      17.08965106      15.60892937 
C      33.36838971      23.96782421      18.53339359 
C      26.76947331      32.66468797      33.88787000 
C      22.38360911      34.34348225      31.90351432 
C      17.21590889      33.40645492      17.54111727 
C      10.53225328      22.03795940      21.17510853 
C      26.79054617      12.32631524      27.26016119 
C      34.81044350      28.40454669      28.79627950 
C      28.12151736      27.69397454      34.71704867 
C      23.02069827      24.73569280      10.58783940 
C      27.30826830      26.34036930      11.74832366 
C      17.40863926      32.59940134      31.74752037 
C      29.58046217      18.37787055      34.04933542 
C      19.49773524      34.96299338      24.46299438 
C      32.36019838      32.70315112      28.43828617 
C      28.81863704      30.26826196      14.87348689 
C      34.38585733      16.66040206      25.51814632 
C      35.66242023      21.67794151      21.95902285 
C      17.74646107      12.79478848      25.22294151 
C      21.54691234      35.18356305      19.88526455 
C      12.61914100      17.90582439      18.54473081 
C      19.59938275      29.32407818      35.37324917 
C      33.37251545      31.50963210      23.67440195 
C      35.60265243      28.63685179      22.27755393 
C      32.10843338      30.48436174      32.55777584 
C      21.67451510      12.11793431      22.91610051 
C      33.27685082      17.72044267      20.31766789 
C      27.94175611      12.79405772      18.02213935 
C      14.04759861      29.65326874      30.18379877 
C      32.89185230      20.66900329      31.20499909 
C      19.37429819      26.36909010      13.21426966 
C      15.80847146      28.42385200      16.20545221 
C      26.35466419      11.38390499      22.50704289 
C      15.10465868      33.83407773      27.13557142 
C      14.84163544      20.95241948      32.62859961 
C      21.62244792      15.54284212      14.42736002 
C      23.36023439      29.31853475      12.51281334 
C      20.07540300      21.40454924      12.83433270 
C      21.63566621      33.12152636      15.34959752 
C      23.60282969      35.30127720      27.37674428 
C      12.18965857      18.62416568      30.03908605 
C      25.62453283      34.64150321      22.11848011 
C      29.15011699      20.74215101      12.33238945 
C      16.30371720      22.02219504      15.28846042 
C      27.62809908      16.20978049      14.29517930 
C      17.64921704      12.47853921      30.14857903 
C      29.80019790      13.93581975      31.30551950 
C      27.24579512      35.31941485      29.97182447 
C      32.68425163      29.14272834      18.15888679 
C      25.90312723      15.02594736      34.27230173 
C      12.87776738      30.13276276      20.43149569 
C      12.06108912      27.18863497      26.59891605 
C      36.02120041      19.76528062      27.01996777 
C      30.92810942      24.20220872      14.76536924 
C      19.74744197      24.66117449      36.03425284 
C      36.45834389      24.75229107      25.97305077 
C      19.68802148      19.44550847      35.88898648 
C      32.31588487      25.77832040      32.41724510 
C      24.57355011      19.11593710      11.61384042 
C      15.62798107      33.41948340      21.03012755 
C      15.15851909      25.47725337      32.23567617 
C      10.75515387      27.08387290      21.49451655 
C      22.74216054      12.51491985      16.66577973 
C      12.88207645      24.60600211      17.40626681 
C      22.03760410      12.27396215      28.79609482 
C      16.46316976      16.05871592      33.30935978 
C      14.25542543      15.14151509      20.70625316 
C      13.26267432      14.81930027      26.85056632 
C      26.93828144      33.46484659      16.10727552 
C      31.69099785      13.51006762      25.35853468 
C      18.48370554      13.25909240      19.00904399 
C      28.35842851      34.58527832      25.67974438 
C      11.85275435      22.54767875      28.10482379 
H      22.04716085      14.04304464      32.92961947 
H      20.92978434      13.67290361      34.28269432 
H      20.34104670      13.61491092      32.59067154 
H      30.56346511      33.40010275      19.04121385 
H      30.12732839      34.02120713      20.66093946 
H      30.67103363      32.33187246      20.48104776 
H      24.45238279      24.48318705      37.05184465 
H      22.86157362      24.67758987      36.26272803 
H      23.05635238      23.50771010      37.61519253 
H      23.15352245      18.14452608      37.70090386 
H      24.23607858      19.54684652      37.42758940 
H      22.60106345      19.54536102      36.72232243 
H      11.24274044      18.56597350      25.94765133 
H      11.16553445      19.69641898      24.56002618 
H      10.33241471      18.11053184      24.47270954 
H      33.31871130      15.42248420      28.54231879 
H      32.79506715      15.22443699      30.23865232 
H      31.59814180      15.09960492      28.90731260 
H      30.35936079      12.57125379      21.74222142 
H      31.82247634      12.51740235      20.70738407 
H      31.98666422      12.73196678      22.47346811 
H      31.18592557      20.23178279      15.80850534 
H      31.90607760      19.02675047      16.91720198 
H      31.43757991      18.54074335      15.25023447 
H      28.00161607      22.31949949      35.64580876 
H      28.91163581      23.65366384      34.85273317 
H      27.12764948      23.58963488      34.73083898 
H      22.70216225      30.13819879      35.29379479 
H      23.29449893      29.39825802      36.81920370 
H      24.42514802      30.27671242      35.73568819 
H      12.82341394      32.49317004      25.04371295 
H      14.44297086      32.34429251      24.28557428 
H      12.96942134      32.00607409      23.33081146 
H      16.93068840      17.55344494      14.61558924 
H      17.90612044      16.72145098      15.85541051 
H      16.18799754      16.26102215      15.60321385 
H      32.54868379      24.44206281      17.98106384 
H      34.07222026      24.73068509      18.88283053 
H      33.88100310      23.25415190      17.87763826 
H      27.07776211      33.27426475      33.03154954 
H      25.73236298      32.90678414      34.14767634 
H      27.42693875      32.85345552      34.74415297 
H      21.41355401      34.19749991      31.41681259 
H      22.26691806      35.00597461      32.76890382 
H      23.08495874      34.78394844      31.18533635 
H      16.32740669      33.74943510      18.08373584 
H      18.11677023      33.81587231      18.01199344 
H      17.15465411      33.74425620      16.50042766 
H      11.12700034      22.62279379      20.46484468 
H      10.47031938      21.00104792      20.82479420 
H       9.52600613      22.46488028      21.25351038 
H      27.56279224      13.08206284      27.42791242 
H      26.65695100      11.74824099      28.18192982 
H      27.11075695      11.65775982      26.45154506 
H      35.78879710      28.89657662      28.75865652 
H      34.34951749      28.56578542      29.77830053 
H      34.92654635      27.32857305      28.62761976 
H      28.21795450      27.13102225      35.65318919 
H      28.82058403      28.53807342      34.72166927 
H      27.09951088      28.07573425      34.62535388 
H      22.97832003      25.78492467      10.27268048 
H      23.46537078      24.13312830       9.78743750 
H      22.00852822      24.37704392      10.79847950 
H      26.40076794      25.87466508      11.34866994 
H      27.14534715      27.41918674      11.85492024 
H      28.15796252      26.15152296      11.08254684 
H      17.76229782      32.20635025      32.70773612 
H      16.78708334      33.48714430      31.91096141 
H      16.82363210      31.83287579      31.22715256 
H      30.52785730      17.89311031      34.30918514 
H      29.75267974      19.42572361      33.78038450 
H      28.90008010      18.33713005      34.90834274 
H      18.64594897      34.27808537      24.43119521 
H      19.36602592      35.65079918      25.30625133 
H      19.53937648      35.53229355      23.52660737 
H      32.26561689      32.35634806      29.47338980 
H      33.19937664      32.18576879      27.95907682 
H      32.52016295      33.78705815      28.41498792 
H      29.55397692      31.07899850      14.92655039 
H      29.07012584      29.60461483      14.03755135 
H      27.81597594      30.68380941      14.70679860 
H      34.22214204      15.58662949      25.66934691 
H      35.45377441      16.84250488      25.35473769 
H      34.04529500      17.20616239      26.40578154 
H      34.93211255      21.49828909      21.16237198 
H      36.12092919      22.66195765      21.80472882 
H      36.43878964      20.90531465      21.94708940 
H      17.51699646      12.10159365      26.04140311 
H      16.90835080      13.48725330      25.09480833 
H      17.91181195      12.22747597      24.29986274 
H      22.35320639      35.40216132      19.17502226 
H      20.81266594      35.99620935      19.87053983 
H      21.97490748      35.07325991      20.88781695 
H      12.66507382      18.26494190      17.51011123 
H      13.48927630      17.26462496      18.72808138 
H      11.69545048      17.33755384      18.69963871 
H      19.22123680      30.05509554      36.09697389 
H      19.02622275      28.39241181      35.44814755 
H      20.65180821      29.10754457      35.58477633 
H      33.99070178      30.72394324      24.12838614 
H      33.87758260      31.91670579      22.79119858 