699
Properties=species:S:1:pos:R:3 i=117 optimized=T E=-11184.5552015428 pbc="F F F" jobid=279_84-Ag-40_1-000009-PBE
Au      33.19885352      25.43238497      26.01664890 
Ag      32.12430550      29.23006709      21.27388984 
Ag      34.40371971      28.13450562      25.30379416 
Ag      29.87119362      15.14477763      19.77595677 
Au      34.06972549      19.49408932      23.67056149 
Au      27.36441026      23.40712739      13.05497363 
Au      18.19082099      33.22514342      28.21229977 
Au      28.67968869      30.78485115      18.21097982 
Au      24.93364559      21.28483035      23.28907164 
Ag      26.29080612      23.28522377      24.97677107 
Ag      28.18770364      25.12392484      23.67788260 
Ag      23.79935985      21.62093949      29.06224267 
Au      23.31653440      27.87996098      27.04250680 
Au      26.89872453      23.11696353      22.02991576 
Ag      22.38240765      19.58215589      27.41214213 
Au      27.24504427      21.15583217      26.79523477 
Au      22.07786635      21.54496698      22.73269009 
Au      21.06134466      23.61451136      20.87025613 
Au      27.64598437      25.34110913      26.57806546 
Ag      19.98330929      24.04337125      26.73448488 
Ag      25.50087331      21.08783914      20.35194929 
Au      24.28592215      25.76020849      28.82452087 
Au      23.86473329      27.69969513      24.11490260 
Au      26.21714075      27.67289867      27.63128766 
Au      20.94112330      21.89975887      28.47605995 
Au      22.89144790      23.70905959      27.23351904 
Ag      21.50982190      21.72896099      25.62821143 
Au      19.51630258      19.86633808      26.88728476 
Au      25.86718145      19.10902165      25.12763104 
Au      25.22372835      23.61619145      30.76372337 
Ag      23.01491129      25.37850101      19.59040937 
Ag      20.96842750      27.94452656      23.60536467 
Ag      26.68828397      27.44915298      24.76236899 
Au      22.61097022      21.40133099      19.80221513 
Ag      21.93662201      25.87345909      25.42070008 
Au      27.20372579      25.50870546      29.51600066 
Au      20.16265298      19.71096572      24.04743941 
Ag      25.91374726      25.11884552      20.22585511 
Ag      23.52184858      19.25884383      21.62419752 
Ag      22.31116397      23.92220542      30.11343945 
Au      21.01911157      17.52447632      25.80283512 
Au      21.59675409      27.64826635      20.63776369 
Au      24.41107265      27.43066894      21.25852487 
Au      24.54963696      23.15271558      18.54549823 
Au      28.64663406      23.20185109      28.49615510 
Au      18.62789567      22.00823552      25.11668606 
Ag      26.73660663      21.28309785      29.67813355 
Au      22.34907661      30.03645386      25.21047178 
Au      27.23837229      27.18102026      21.87886859 
Ag      21.77654975      19.73904521      30.33499386 
Au      18.46045974      26.38109366      27.71910654 
Au      23.13754032      21.72733741      31.92787972 
Au      21.61821777      23.44809466      17.90500148 
Au      17.05306660      24.28160332      26.18807856 
Ag      27.48493971      22.83792598      19.10551198 
Au      23.88714762      17.20554142      26.35621662 
Au      23.23361314      17.51041942      29.25215393 
Au      25.23861187      29.78251650      25.85826405 
Ag      21.62632834      17.30445433      22.89053681 
Au      28.76789138      18.75688839      25.75812140 
Au      22.87667969      29.76832863      22.28439863 
Ag      25.34261070      25.37605183      23.11607635 
Au      20.09001626      25.68841257      18.96050832 
Au      29.54927422      27.17278680      25.39314174 
Au      19.41647601      24.26512363      29.63266724 
Au      17.95262326      22.16453288      27.96928906 
Ag      19.94121894      28.33328279      29.35486289 
Au      23.67402936      25.89039419      31.68194235 
Au      20.87991376      26.37274094      31.23283167 
Au      26.33436756      19.01509728      22.16851693 
Au      24.66213134      19.49034107      30.86197889 
Ag      20.36200446      17.72076546      28.70680339 
Ag      28.85721816      24.86631806      20.75633475 
Ag      19.52518158      30.21460443      24.65781830 
Ag      25.79853361      29.59614462      22.89438751 
Au      24.93878565      27.16960347      18.34927338 
Au      28.45255641      20.79975117      20.93901879 
Au      29.09883174      27.41976917      28.32492508 
Ag      30.09331669      20.90042045      27.39829652 
Au      18.15063862      23.91875048      20.27896254 
Au      17.76230573      19.71886360      20.64055125 
Au      25.68960579      27.75793372      30.52018498 
Au      28.11987067      23.48673315      31.31039986 
Ag      21.88242003      30.21508909      28.14104807 
Ag      21.75191252      24.16611041      32.94828394 
Ag      18.68983440      27.96998779      20.12276591 
Au      16.29002629      22.00165485      21.61565072 
Au      30.56390376      25.11413839      27.19637070 
Ag      23.43529887      23.55934695      24.36042513 
Au      20.01458381      30.01334749      21.73294206 
Ag      16.58291485      20.04596949      26.47291006 
Ag      26.70185707      16.96990222      26.92967049 
Ag      30.05189481      25.26619905      30.07384092 
Ag      17.58210352      28.41693097      25.92942703 
Au      16.21412985      26.29130228      24.31074197 
Ag      28.61159938      29.21703421      23.46401500 
Ag      27.84990727      26.93159250      19.03457081 
Ag      24.08871773      19.11397042      18.68168707 
Ag      27.37535466      16.79513599      24.00862073 
Ag      26.91364467      18.79977619      19.26745941 
Au      26.01323787      21.34375684      32.63455130 
Au      12.55088855      18.79505998      21.95509562 
Ag      23.08531178      21.15504261      16.88706815 
Au      26.35047440      29.24534198      19.92281751 
Ag      19.81408612      19.55729365      32.43470182 
Au      26.10369295      17.09902229      29.76626794 
Au      29.19418366      18.71748862      22.84188187 
Ag      27.63712952      29.75993564      29.33500206 
Ag      15.16629777      22.40675348      27.43301182 
Au      26.06092892      20.85435164      17.35665331 
Au      24.50798602      23.80492203      33.52240720 
Ag      23.60675099      25.20823224      16.56031970 
Ag      17.52453417      17.91740620      28.19509973 
Ag      19.04255198      30.46430063      27.56781876 
Ag      23.55840568      29.53750285      19.27773690 
Ag      22.47103425      25.62694556      22.51111280 
Ag      16.09973525      20.12954999      29.38798926 
Au      27.49177048      19.08479528      31.42207060 
Au      29.17808383      28.98115890      20.59819989 
Au      16.49049617      24.45623402      29.02103369 
Au      31.98765997      22.79289673      26.12651132 
Ag      16.72559544      21.66214314      18.77462729 
Au      24.94395552      31.60494086      20.85389493 
Au      22.00664548      31.72706114      20.44581430 
Au      20.74772534      25.48781263      16.13743262 
Au      24.31149546      31.84302370      24.06276190 
Au      20.68629730      29.74703072      18.84726706 
Au      23.11491579      15.10727829      21.57385829 
Ag      30.36827862      22.50973335      19.66167824 
Au      25.13851311      22.96789964      15.58052406 
Ag      18.74612810      23.67713787      17.32520126 
Au      28.90685966      20.53329177      18.14797875 
Au      17.59527017      22.50198710      30.94462168 
Ag      17.10672851      28.67343814      28.78319520 
Au      27.79213713      16.73786989      21.07529292 
Ag      15.57478788      26.71452871      27.13031167 
Au      18.91174899      15.71958437      27.02429589 
Ag      19.54864951      15.48039366      23.99908660 
Ag      18.02547398      26.66125608      30.75491343 
Au      20.13135297      15.47103035      21.20157137 
Au      27.29703585      31.52186468      24.39711847 
Ag      24.65228785      15.07813128      28.39195670 
Ag      23.98958904      23.35811282      21.46073638 
Au      20.15266824      21.18506709      16.36404739 
Au      27.91086114      22.75803828      16.06823160 
Ag      31.47028454      20.32146655      21.81777204 
Ag      26.76351395      31.85333814      27.54782338 
Au      25.62611855      14.92060208      25.22275037 
Au      28.70251322      16.19040268      28.82126810 
Au      25.96327995      14.90480644      22.32810192 
Au      32.57480795      22.59709510      23.30020166 
Au      25.70925231      30.51205419      31.40259645 
Au      22.89116523      30.87547886      30.79608992 
Au      24.17710284      16.91372677      31.92305613 
Au      31.27627459      17.85230518      24.73650962 
Ag      17.08811987      26.04893568      18.53415925 
Au      31.57237653      22.96182703      28.87809398 
Ag      29.37381222      15.96975770      25.94070403 
Au      15.57265975      29.17914881      23.98152509 
Au      16.11688201      28.99168438      21.04955837 
Au      17.01052137      31.14633110      25.59386342 
Ag      29.41450008      24.80877852      17.90633447 
Au      30.75034297      17.98106609      27.63605898 
Au      18.55447480      17.48594694      30.87672892 
Au      24.00408405      19.61645038      33.62959518 
Ag      18.11386695      30.82663980      19.76303464 
Ag      17.46442551      31.03659960      22.66764405 
Au      14.22366737      27.05974207      22.39390709 
Au      32.60557518      19.92810523      26.33924156 
Ag      24.80590365      25.58361812      25.98107190 
Ag      32.91076086      26.74315158      23.08948250 
Ag      24.86349046      20.14409249      14.88040973 
Ag      20.06422060      30.96618277      30.25030367 
Au      31.79541658      27.77100920      27.05843316 
Au      23.89346027      28.54893197      32.59610970 
Au      29.92679329      15.96197890      22.92921689 
Ag      22.37799243      17.10461439      34.37122944 
Au      13.39181299      19.72013772      28.29116199 
Au      24.16487392      27.94026815      15.72954196 
Au      15.27517807      17.43051452      30.54951197 
Au      25.70502615      25.75208878      14.73959731 
Ag      28.58105476      30.60582386      32.16808297 
Au      22.54025995      30.10025772      16.64677499 
Ag      21.99779599      21.71518673      34.70791252 
Au      31.40338664      28.40074027      31.28698486 
Ag      19.79115793      15.03292938      29.74548181 
Au      22.39370037      25.28722487      12.91718649 
Au      16.38664534      14.64702792      28.12028899 
Au      25.49739754      33.75919719      29.41472129 
Au      26.64309487      14.54035443      31.20259236 
Ag      28.34378162      13.64364847      24.03600298 
Au      16.22568693      17.07269970      19.40806529 
Ag      16.08310317      17.41438102      23.11971386 
Ag      20.83026879      15.62254120      17.69339537 
Au      11.84539738      24.62428809      23.00298262 
Au      14.57124085      30.20715304      27.10335873 
Ag      24.36269961      21.40277709      26.18556433 
Ag      14.99837603      19.80736882      20.30443735 
Au      25.63073066      31.26303492      18.17147319 
Au      28.35612476      20.22499937      14.57548649 
Au      30.15145380      26.95394014      22.46942418 
Au      31.07219132      24.87348618      24.23852817 
Au      31.73325191      24.71377753      21.40497429 
Au      20.55661098      23.86386938      23.84218984 
Au      25.14274766      14.81394603      16.09625512 
Au      31.32813615      28.99355756      24.31472875 
Au      25.75700154      23.42195316      27.87649368 
Ag      27.01923453      27.71325594      16.44133858 
Ag      20.62737191      31.36830239      33.13079699 
Au      17.66967931      24.02648973      23.26506089 
Au      23.01162902      19.36320141      24.49825545 
Au      27.77518330      21.00682426      23.86655821 
Au      19.61027031      25.93202832      21.95142993 
Au      24.98353548      30.99140730      14.95730232 
Au      25.21976227      19.30256428      27.98747163 
Ag      19.06174616      26.11843542      24.84795591 
Ag      20.47741248      28.18367412      26.50906218 
Au      21.38804224      26.02206564      28.30269831 
Au      29.11383087      23.05997775      25.54772706 
Au      19.20559088      21.79827685      22.17211505 
Ag      24.53052955      17.06517835      23.47612818 
Ag      22.83874865      28.14454121      29.92862140 
Au      20.70351428      19.51692639      21.10684965 
Ag      20.39571051      22.14612732      31.35087908 
Au      24.81067484      30.07054110      28.79114477 
Au      18.05390617      28.24709698      22.99649527 
Au      28.14655450      18.95782754      28.59765938 
Au      18.96532133      20.10707008      29.74553594 
Ag      29.77468820      22.75796591      22.63325370 
Ag      19.63588064      21.61477890      19.21136364 
Ag      18.17993199      17.83165647      25.25091224 
Au      15.68633188      22.19265476      24.56064197 
Au      16.66018284      26.11855201      21.35050374 
Au      26.53270945      24.95445586      17.37240150 
Ag      28.11512885      29.51478311      26.35584805 
Au      17.24007772      19.93132965      23.55308232 
Au      18.82614027      17.68077417      22.39721449 
Au      30.62947126      20.71975017      24.50507181 
Ag      22.09720231      27.48094892      17.73143805 
Au      21.19557268      19.34814085      18.25232683 
Ag      22.17067471      17.25093021      19.91307806 
Ag      21.85504078      15.49748553      27.58056346 
Ag      18.97376212      24.44147935      32.46163505 
Ag      26.41510510      25.67965426      32.47367359 
Ag      14.77465224      24.23495822      22.69267220 
Au      29.61672568      20.71308302      30.24515389 
Au      23.78414442      32.03446983      26.87097709 
Au      22.45601080      15.24838334      24.76688122 
Ag      24.96595158      17.00949479      20.51372933 
Au      28.54005167      27.70363708      31.14927982 
Ag      19.25682904      17.52092809      19.49782878 
Ag      27.79355904      31.27015267      21.59108478 
Ag      15.29427896      24.02848645      19.81809331 
Ag      21.33782376      17.03553629      31.40222794 
Ag      21.23917092      32.11375043      23.24155319 
Ag      14.15703565      24.47575978      25.47130669 
Au      22.45076325      23.06258616      14.87277336 
Au      30.66827453      26.74291051      19.54221830 
Au      18.37511182      19.47859142      17.68035803 
Ag      22.87934699      18.32678900      16.18565573 
Ag      15.51761782      17.39843621      26.11974554 
Au      30.27730486      29.88332614      28.22113684 
Au      29.88328882      18.23181464      20.07739759 
Ag      13.68911192      21.53646111      22.56144243 
Ag      30.33443754      17.73196292      30.83479648 
Au      26.72172364      16.03964415      18.47760607 
Ag      20.80767704      32.28816966      26.28655626 
Au      19.16142660      28.06486264      17.29242878 
Au      25.79637824      18.08917172      16.64635531 
Au      14.56820300      19.53095688      24.49512082 
Au      18.97401389      33.44668402      20.92261606 
Au      23.76664696      21.92329249      12.38036953 
Au      34.69524624      22.58370823      27.39812373 
Au      29.07205499      32.80944821      29.33910937 
Ag      19.22470790      31.08141283      16.69190053 
Ag      23.74047679      15.14364546      18.79430774 
Ag      14.13077853      26.91005116      19.40363788 
Au      20.95764362      26.75853595      34.40358434 
Au      19.51447998      28.58795728      32.20307474 
S      20.52461254      15.86486788      33.48382927 
S      28.67064824      32.65059668      19.68533845 
S      23.91509175      22.89898403      35.71263668 
S      24.12844509      18.24197273      35.59920375 
S      12.50243270      18.19315578      24.23575190 
S      32.31235440      17.42571937      29.43111750 
S      31.46721821      14.63985244      21.55274750 
S      29.63121499      19.15832317      16.24896503 
S      28.24919912      22.07643062      33.30969215 
S      23.01430502      27.90073342      34.76900761 
S      13.50254921      30.03159525      25.00594314 
S      16.37479501      18.10654161      17.27527421 
S      32.78103096      23.16082796      19.82942036 
S      26.59592065      30.90162182      33.62037092 
S      22.73893105      32.42226834      32.71582716 
S      17.08666626      31.68879136      17.66750649 
S      11.35577035      22.32967850      22.90618093 
S      25.04590679      13.16588506      26.79545970 
S      33.78580666      29.14966621      27.41349594 
S      28.50911204      26.63319580      33.39635703 
S      23.99481414      24.14726388      11.59876768 
S      27.56253276      25.75577229      13.14570452 
S      19.07534630      33.25947373      30.38868405 
S      28.83485847      17.53470507      32.76112463 
S      21.23957481      34.14427820      24.67173214 
S      30.88568207      32.19754406      27.96037048 
S      28.97687540      29.22488494      16.43663467 
S      33.47167201      17.22054440      23.82087907 
S      34.86222838      21.70470194      23.46348331 
S      19.40649842      13.65503345      25.69964379 
S      20.85844458      33.68891370      19.51674811 
S      12.62140078      19.39842384      19.68076971 
S      18.53272418      30.29441940      33.63426472 
S      32.06297435      30.92039725      23.05291904 
S      35.32342313      27.20277737      23.26748563 
S      30.98136311      30.67668811      31.76625323 
S      23.00452077      13.34308890      23.31560550 
S      32.09385596      19.12215419      19.68766312 
S      28.62629517      14.68383661      17.74307747 
S      15.43378169      30.45012298      29.28136252 
S      31.56657837      21.93016670      31.08742667 
S      20.68673981      26.55685280      13.93150089 
S      17.24088863      27.05751828      16.23054818 
S      27.31507304      12.90190471      21.92861793 
S      17.00399914      33.52728686      26.19915620 
S      15.39453425      21.58334154      31.37858686 
S      21.06665623      16.74982969      15.55983118 
S      24.70442124      29.10627686      13.57891284 
S      20.11938493      22.39503946      14.26046646 
S      21.11283368      31.43852662      15.19887517 
S      23.52100257      34.08052931      28.18182804 
S      13.61439400      17.43650818      28.86978786 
S      24.35302747      33.50729138      22.27357987 
S      27.33984715      21.08418650      12.61844267 
S      16.36928530      23.11228128      16.78738444 
S      25.89978707      16.55437551      14.69841750 
S      17.52635139      13.97492509      30.07352791 
S      28.51754631      13.98852492      29.87822147 
S      27.44140538      33.76385495      30.75493643 
S      32.78651390      27.96825049      19.29973863 
S      24.93238149      14.77772444      32.81469494 
S      14.50047062      29.31410345      19.25866294 
S      13.23149655      25.87990080      27.30059845 
S      34.50802475      20.27555483      27.83541682 
S      30.31393258      23.37498101      16.07382350 
S      18.84820405      25.68865039      34.60011046 
S      35.32639294      24.83033724      27.03863907 
S      19.77832016      20.68427398      34.62553006 
S      32.16925468      26.18936210      31.01423588 
S      23.51251976      19.62691780      12.85674905 
S      17.02198591      33.45463652      22.24196943 
S      15.58837874      26.15132520      30.54571838 
S      11.84676180      26.98816186      22.92208544 
S      24.31454315      13.09623965      17.47389091 
S      13.02464751      24.75759959      19.14991662 
S      22.10535163      13.95145689      29.51029719 
S      16.65797631      17.37191154      32.45627211 
S      15.84342514      15.72249318      21.31732177 
S      15.14501133      14.95052518      26.13177821 
S      25.30816664      32.84048612      16.37521979 
S      29.73025620      13.52858990      26.03479524 
S      20.21145254      13.90789777      19.31382090 
S      27.25535070      33.56849026      25.72593580 
S      12.75409158      21.89589421      27.69927131 
C      21.13303140      14.13253011      33.39429351 
C      30.43677966      33.03476734      20.00957193 
C      23.26100772      24.27846904      36.73376157 
C      23.37720514      19.15807065      37.00111923 
C      11.12230442      19.13895809      24.98784443 
C      32.58122167      15.61326286      29.30062678 
C      31.25609301      12.82577926      21.75864505 
C      31.34216579      19.71974811      15.90802825 
C      28.01099744      23.12077699      34.79280566 
C      22.57480624      29.42352598      35.68795346 
C      13.32442141      31.74843227      24.38150328 
C      16.87214578      16.77660699      16.10899612 
C      33.30129358      24.15627502      18.38236549 
C      26.34497606      32.66509428      34.04264809 
C      22.37104372      34.09432248      32.05727743 
C      17.15539706      33.52478248      17.56974609 
C      10.55177911      22.20882860      21.25734901 
C      26.53551280      12.20275718      27.24495473 
C      34.79350491      28.30275912      28.69172818 
C      28.04914634      27.80548121      34.72709953 
C      23.21020318      24.12274794       9.93511524 
C      26.92696562      26.40768795      11.55475408 
C      17.54364369      33.14365490      31.39869672 
C      29.59407326      18.53347630      34.10223401 
C      19.75077317      35.17289139      24.37736014 
C      32.41263533      32.48689158      28.93075822 
C      28.81218790      30.21914142      14.90175345 
C      34.41316329      16.55356334      25.24829059 
C      35.64500713      21.80081936      21.80800600 
C      17.90999703      12.63656428      25.39654652 
C      21.73270730      35.17275732      20.14930977 
C      12.52243850      17.84227665      18.71073552 
C      18.62569100      29.66292033      35.35707868 
C      33.77235372      31.39777596      23.52164795 
C      35.75898581      28.55580996      22.10421191 
C      31.72375651      30.88695157      33.43754915 
C      21.49988361      12.36500444      22.96276437 
C      33.28532027      17.77497511      20.04806047 
C      28.13231388      12.92837167      17.95933513 
C      14.17117547      29.70582973      30.38864899 
C      32.98853164      20.78168517      31.20901694 
C      19.16364897      25.91230664      13.14002051 
C      16.00280367      28.37976763      15.94865652 
C      26.23332973      11.47995420      22.35062739 
C      15.33969599      34.00503445      26.81083861 
C      15.49854528      20.70287235      32.98162305 
C      21.74176495      15.52081802      14.37298714 
C      23.14445526      29.38762160      12.65861586 
C      20.12910624      21.12209720      12.94129837 
C      21.56340979      33.19554510      15.48373136 
C      23.97277882      35.40804411      26.99756499 
C      12.05820200      17.11368159      29.80203428 
C      25.87888183      34.51423125      22.37610304 
C      28.66261700      20.84936998      11.35951317 
C      16.30983475      21.98479143      15.33839404 
C      27.67228939      16.20739017      14.38756610 
C      17.83589185      12.18472363      29.79365958 
C      29.83396160      13.78531482      31.14223813 
C      27.90820525      35.54423707      30.78815095 
C      32.61389943      29.12912117      17.88844833 
C      25.90171595      15.17593939      34.32370952 
C      13.04895815      30.11188126      20.05003887 
C      11.99844263      27.05742644      26.63128399 
C      36.02251111      19.58707887      27.05965991 
C      30.67632585      24.49217948      14.66454670 
C      18.98811387      24.50103655      35.99458466 
C      36.54596856      24.66737680      25.67549101 
C      19.67346532      19.40775858      35.94223625 
C      32.18822017      25.53697152      32.73052262 
C      24.60005733      18.73519387      11.67921231 
C      15.63071010      33.53974537      21.04536481 
C      15.10921880      25.37340761      32.13761052 
C      10.85224570      27.28164569      21.40501654 
C      22.80337861      12.45186089      16.65334472 
C      12.84161022      24.46532675      17.34468877 
C      21.86346467      12.28587126      28.77170666 
C      16.57572589      15.67755483      33.15009310 
C      14.07346698      15.24072801      21.22778382 
C      13.39131511      14.62100312      26.54787777 
C      26.95972447      33.55011651      16.00486813 
C      31.45928629      13.29078233      25.46177534 
C      18.46663273      13.46628572      18.93642468 
C      28.94679851      34.27419622      25.73114566 
C      12.26544431      22.69855752      29.27708034 
H      22.15411132      14.08023530      33.00191446 
H      21.09838929      13.69948656      34.40035125 
H      20.46277570      13.57586381      32.72848403 
H      30.91746753      33.33618777      19.07258468 
H      30.46107001      33.87117252      20.71870631 
H      30.96325624      32.17952402      20.44752707 
H      24.10017586      24.92230608      37.02156284 
H      22.52275963      24.87724748      36.18721801 
H      22.80172552      23.84835712      37.63160667 
H      23.24462092      18.45212633      37.82948977 
H      24.06705162      19.95743276      37.29439325 
H      22.41259852      19.59995835      36.73196267 
H      11.28869493      19.15386540      26.07287965 
H      11.08412979      20.16554088      24.60756543 
H      10.18806151      18.61496201      24.75506088 
H      33.38040815      15.44244425      28.56944189 
H      32.89466560      15.23140979      30.27910094 
H      31.67156635      15.10011995      28.97120269 
H      30.19915377      12.54451606      21.81867487 
H      31.71998290      12.33847622      20.89291778 
H      31.77399669      12.51233329      22.67201203 
H      31.37379921      20.80689558      15.76715303 
H      31.94717772      19.43874570      16.77994473 
H      31.70397589      19.20339985      15.01179155 
H      27.84645724      22.45792608      35.65029984 
H      28.92070694      23.71553263      34.93586053 
H      27.14974232      23.79054022      34.67269177 
H      21.85495280      30.03979981      35.13230216 
H      22.15690582      29.14127726      36.66116165 
H      23.50009095      29.99432916      35.83121232 
H      12.63520176      32.29311481      25.03668680 
H      14.29310577      32.25731179      24.33961672 
H      12.89888377      31.68315985      23.37273461 
H      16.96064425      17.23390740      15.11618020 
H      17.83557762      16.33591209      16.38766320 
H      16.08886350      16.01057884      16.09646356 
H      32.45842400      24.72332961      17.96945798 
H      34.09441033      24.84699176      18.68871262 
H      33.67918949      23.45649761      17.62720199 
H      26.80177740      33.32036233      33.29423404 
H      25.26629615      32.85826664      34.09646556 
H      26.80865932      32.83389576      35.02228666 
H      21.49830342      34.08801186      31.39573776 
H      22.18270850      34.75574065      32.91118829 
H      23.25221808      34.44146792      31.50292219 
H      16.26433876      33.92855899      18.06511372 
H      18.05055946      33.92470095      18.05802605 
H      17.14460957      33.82028206      16.51459011 
H      11.14904008      22.71330463      20.48958893 
H      10.46395230      21.14337183      21.01208071 
H       9.55687781      22.66321135      21.31842094 
H      27.37159576      12.84295178      27.53931339 
H      26.26526905      11.55701240      28.08951842 
H      26.83222091      11.58600670      26.38841461 
H      35.75084735      28.83288391      28.76170238 
H      34.25858765      28.36458995      29.64761551 
H      34.97108843      27.25232078      28.43744897 
H      28.00766476      27.23621882      35.66408666 
H      28.81582022      28.58540066      34.80696334 
H      27.07728159      28.27231109      34.54130128 
H      23.17860202      25.15190456       9.55921305 
H      23.83592783      23.50685456       9.27895370 
H      22.19804451      23.71092668       9.97608309 
H      26.03400913      25.85863786      11.23831066 
H      26.67987120      27.46484087      11.71043050 
H      27.72018581      26.31016311      10.80453176 
H      17.84288724      32.95178703      32.43628495 
H      17.01125834      34.09888272      31.33373135 
H      16.89806182      32.33143431      31.04734846 
H      30.47586720      18.00055174      34.47589407 
H      29.87749038      19.52953564      33.74683532 
H      28.85586402      18.63726430      34.90636503 
H      18.83485947      34.57738710      24.33498100 
H      19.66740328      35.89731635      25.19604368 
H      19.88033008      35.70415113      23.42690299 
H      32.29526052      32.13470041      29.96126355 
H      33.21589504      31.92884916      28.43340325 
H      32.62595691      33.56177342      28.91178650 
H      29.57218216      31.00849015      14.89996655 
H      28.98721712      29.54213277      14.05666086 
H      27.80812524      30.65599142      14.81043581 
H      34.09756561      15.51142215      25.38069001 
H      35.48333813      16.58804940      25.01551441 
H      34.20030936      17.12198526      26.15965313 
H      34.94255953      21.51434441      21.01872205 
H      35.94885887      22.84371132      21.65605174 
H      36.52555852      21.14909108      21.79963128 
H      17.58235036      12.18462960      26.34044797 
H      17.09002761      13.23398548      24.98679665 
H      18.18844549      11.84819687      24.68628310 
H      22.67443406      35.25550023      19.59357022 
H      21.10719835      36.05170896      19.95753689 
H      21.94916822      35.07985934      21.21885088 
H      12.66882765      18.11684608      17.65912192 
H      13.30486525      17.13328039      19.00246709 
H      11.53116808      17.39584466      18.84391714 
H      18.50800377      30.51112554      36.04099822 
H      17.80470606      28.95061571      35.49849035 
H      19.57360062      29.14950195      35.55053536 
H      34.38683983      30.52219580      23.76330966 
H      34.22407351      31.95236127      22.69085070 