699
Properties=species:S:1:pos:R:3 i=147 optimized=T E=-11603.8176484164 pbc="F F F" jobid=279_84-Ag-79_9-000010-PBE
Ag      33.14126171      25.41547768      25.99033726 
Ag      31.99094507      29.16495127      21.61100426 
Ag      34.38833165      28.14718946      25.46335383 
Ag      29.67960024      14.80895907      19.71268246 
Ag      33.77850253      19.60858501      23.78320808 
Ag      27.06458590      23.22278473      13.33332031 
Ag      18.13329979      33.17691822      28.04665196 
Ag      28.40946019      30.60595101      18.17992219 
Ag      24.93516602      21.20538986      23.26633729 
Ag      26.27678724      23.25093113      24.93109780 
Ag      28.19112437      25.08148806      23.65184133 
Ag      23.79214415      21.64279123      29.00894902 
Ag      23.33875249      27.88316431      26.97243540 
Ag      26.88356637      23.06269411      22.01570879 
Au      22.38628745      19.57448034      27.37773453 
Ag      27.20428704      21.14119297      26.74451866 
Ag      22.02817958      21.48480935      22.72725493 
Ag      21.03624118      23.53985559      20.87734323 
Ag      27.64402323      25.30748817      26.56288354 
Ag      19.94898621      24.03241768      26.73109145 
Ag      25.46556788      21.01503184      20.38329695 
Ag      24.26458686      25.77149348      28.79714040 
Ag      23.86418163      27.69845875      24.08512463 
Ag      26.17442327      27.60385996      27.56126495 
Au      20.86446420      21.92012747      28.41688487 
Au      22.86099210      23.73253904      27.22154714 
Ag      21.45824774      21.69464221      25.60609453 
Ag      19.48672117      19.86105952      26.90667494 
Au      25.83832924      19.10723147      25.08761741 
Ag      25.20510518      23.60217386      30.70546684 
Ag      22.99798489      25.34304754      19.59833107 
Au      20.99856544      27.90715069      23.57173335 
Ag      26.69336407      27.37468232      24.70473617 
Ag      22.59133837      21.28693165      19.84508939 
Ag      21.92294214      25.84477149      25.39501772 
Ag      27.12297999      25.49233715      29.43246910 
Ag      20.13445483      19.70091473      24.04180592 
Au      25.85984939      25.10175970      20.19979878 
Ag      23.52944452      19.20846996      21.67589214 
Ag      22.31203293      23.93691548      30.05616399 
Au      21.05964825      17.51249316      25.77938614 
Au      21.52044967      27.57008460      20.65405560 
Ag      24.39994835      27.41400787      21.25410088 
Ag      24.49074529      23.09252436      18.57217979 
Au      28.59446263      23.17814478      28.44034086 
Ag      18.59537157      21.96384474      25.13254229 
Ag      26.67529153      21.27563075      29.60227646 
Ag      22.39002669      30.03629521      25.10716538 
Ag      27.26488850      27.12919357      21.82607122 
Au      21.75839242      19.79134280      30.21918867 
Ag      18.45678337      26.38064997      27.73414028 
Ag      23.20066685      21.77857748      31.91384045 
Ag      21.59319324      23.34914490      17.97550759 
Ag      17.07024212      24.29069916      26.20619199 
Ag      27.43267104      22.83596912      19.13738972 
Ag      23.90626228      17.19882595      26.32071717 
Ag      23.26846215      17.52014398      29.21772542 
Ag      25.24209271      29.74565502      25.68989221 
Au      21.61224667      17.31592930      22.91900713 
Ag      28.73431997      18.82203594      25.68016886 
Ag      22.82919820      29.76737361      22.24721703 
Au      25.34097983      25.36151415      23.07459353 
Ag      20.06642154      25.60754171      19.02241300 
Ag      29.56898515      27.15605896      25.30460707 
Ag      19.37419423      24.26298346      29.59733000 
Ag      17.97009333      22.19133023      28.00621330 
Ag      19.96784228      28.32334446      29.29675843 
Ag      23.74355581      25.86779270      31.64912429 
Ag      20.94185083      26.27875369      31.13668761 
Ag      26.42612742      18.96226134      22.19520461 
Ag      24.63241011      19.55231732      30.81177571 
Ag      20.36127829      17.73577626      28.68446378 
Au      28.86713346      24.84527106      20.76207155 
Ag      19.52911674      30.24504756      24.64116192 
Ag      25.74687823      29.55219962      22.82267636 
Ag      24.96037195      27.19750271      18.27059352 
Ag      28.41193297      20.77786918      20.94750439 
Ag      29.06407749      27.41135129      28.14144594 
Ag      30.04404849      20.92833127      27.36420391 
Ag      18.14521942      23.86723548      20.35938039 
Ag      17.73574201      19.69067094      20.64903017 
Ag      25.64294476      27.76186137      30.45849429 
Ag      28.10870259      23.32831257      31.25508756 
Au      21.88516242      30.13259628      28.06155085 
Ag      21.83863170      24.11569675      32.90737680 
Ag      18.66971960      27.91788917      20.12760041 
Ag      16.32388135      21.97582728      21.68088226 
Ag      30.49145818      25.07801988      27.09874612 
Au      23.39660052      23.49753727      24.33809421 
Au      20.01020879      30.00673789      21.68197045 
Au      16.57627850      20.05719530      26.42615610 
Ag      26.70853671      16.99636450      26.91658613 
Ag      29.88653851      25.27826828      29.94169545 
Ag      17.57972967      28.46653654      25.94392883 
Ag      16.22550904      26.34895160      24.32636283 
Ag      28.51451250      29.18283101      23.38544720 
Ag      27.82902455      26.88718672      18.99915791 
Ag      24.09912730      18.97667213      18.69632313 
Ag      27.36331090      16.79180227      23.98793708 
Ag      26.92839294      18.78073760      19.32706214 
Ag      26.02933693      21.44623804      32.51830306 
Ag      12.69162960      18.79242388      22.00589947 
Ag      23.12068756      21.08114001      16.96950228 
Au      26.33730284      29.16632169      19.92188665 
Ag      21.17008331      19.88574552      32.93404276 
Ag      26.06657964      17.20088311      29.73298041 
Ag      29.26952256      18.68663077      22.74560155 
Au      27.56770425      29.66140721      29.14182809 
Ag      15.20113969      22.43572783      27.43070710 
Ag      26.01165336      20.83691682      17.46730635 
Ag      24.61315282      23.83163728      33.51606016 
Ag      23.58579886      25.14940313      16.66531322 
Ag      17.52788069      17.94850572      28.18874792 
Ag      19.07501129      30.45151769      27.49518651 
Au      23.45646819      29.42274651      19.39353957 
Ag      22.43766851      25.57974154      22.49825688 
Au      16.09953569      20.16203411      29.25007185 
Ag      27.43058903      19.13618572      31.40096972 
Ag      29.14688602      28.92947008      20.57747329 
Au      16.52597220      24.49715871      29.01113558 
Ag      31.93819809      22.78872977      26.12339598 
Ag      16.72607190      21.72622457      18.82957529 
Ag      24.85565519      31.49938620      20.80438327 
Ag      21.94739912      31.74033972      20.30094113 
Au      20.72140650      25.36515746      16.23440420 
Ag      24.25589833      31.85302185      23.84287313 
Ag      20.61211065      29.63144956      18.82519150 
Ag      23.12382263      15.15653814      21.69676367 
Ag      30.34343552      22.54363489      19.69953045 
Au      25.07063926      22.89833220      15.65989056 
Ag      18.69788003      23.64437614      17.38005165 
Ag      28.82930561      20.65826389      18.11139836 
Au      17.60934451      22.44896893      31.04556755 
Ag      17.14915564      28.72649892      28.80347689 
Ag      27.92061405      16.71506574      21.11700277 
Ag      15.57741669      26.79725770      27.11653657 
Au      18.95665359      15.75352792      27.06142445 
Ag      19.63597540      15.50551688      24.07856547 
Ag      18.12086390      26.68454367      30.73431859 
Ag      20.20589563      15.43709950      21.30956836 
Ag      27.18571222      31.54012824      24.34185779 
Ag      24.73433313      15.11183986      28.28817666 
Au      23.94960590      23.27713049      21.45026024 
Ag      20.21815658      21.25123073      16.42268829 
Ag      27.90733136      22.72281682      16.09934135 
Ag      31.35714567      20.38893991      21.72586510 
Ag      26.76953067      31.75693687      27.42234376 
Ag      25.57975127      14.93166879      25.24425458 
Ag      28.65423356      16.18827467      28.85459319 
Ag      26.00302074      14.84785274      22.30798306 
Ag      32.58175028      22.57600896      23.28803375 
Ag      25.71058575      30.51923979      31.27791318 
Ag      22.90887634      30.83480292      30.72127762 
Au      24.19460911      17.01015509      31.89958296 
Au      31.26257279      17.92864402      24.76914584 
Au      17.04999294      26.06519784      18.66274498 
Ag      31.56847436      23.06528960      28.96671143 
Au      29.33318629      16.08749001      25.98128831 
Ag      15.60786930      29.19052175      23.98708898 
Ag      16.09801096      28.92239184      21.11453519 
Ag      17.03490484      31.25192420      25.60496069 
Ag      29.36727120      24.72234693      17.92194260 
Ag      30.67682271      18.07067199      27.66914039 
Ag      18.56129666      17.41105468      30.86819460 
Ag      24.08624627      19.61340900      33.57324100 
Ag      18.07238687      30.67969022      19.71614510 
Ag      17.49316947      30.99606488      22.66093311 
Ag      14.16611659      27.04328815      22.45996785 
Au      32.57491305      19.99650942      26.48901105 
Au      24.79628453      25.57159569      25.95443659 
Au      32.85316299      26.64015298      23.19911435 
Ag      24.92003319      20.10261858      14.93497898 
Ag      20.08301639      31.03578298      30.14611737 
Ag      31.75350273      27.74349465      27.05496370 
Au      23.82008582      28.61202396      32.47394921 
Ag      29.95536423      15.93009650      23.05726367 
Ag      22.27117533      17.33168324      34.36297942 
Au      13.38127347      19.67030017      28.07834936 
Ag      24.07867396      27.84917628      15.62866038 
Au      15.21088111      17.49030278      30.42321540 
Ag      25.61335659      25.60528812      14.66230934 
Au      29.26480361      30.47318121      32.01139282 
Ag      22.62557809      30.11341802      16.80579475 
Ag      22.35843479      21.97823946      35.00640874 
Ag      31.27854858      27.94043320      30.01479966 
Ag      19.88503111      15.03354711      29.76730649 
Ag      22.71529788      25.71445504      13.91398324 
Ag      16.41259681      14.97468820      28.20487968 
Ag      24.78913641      32.80412996      29.40541267 
Ag      26.29019383      14.59467813      31.07293669 
Ag      28.34159818      13.66718430      24.18909157 
Au      16.22794526      17.21597150      19.37741993 
Ag      16.10555984      17.35589165      23.23330232 
Ag      20.82970559      16.44532808      17.26613006 
Ag      11.92195586      24.47190083      22.97310429 
Ag      14.72317772      29.89954142      26.91716675 
Ag      24.33813624      21.38909337      26.15157937 
Ag      14.91896324      19.98484135      20.28832421 
Ag      25.36026727      30.91416858      17.94275814 
Ag      27.88572648      19.78924523      15.41496080 
Ag      30.12705109      26.93658535      22.47886909 
Ag      30.99217988      24.82388998      24.25680501 
Ag      31.73659552      24.69315877      21.46420111 
Ag      20.51260963      23.76707522      23.82099858 
Ag      25.18195227      15.29090770      15.64096942 
Au      30.68429006      29.76000648      25.12291257 
Ag      25.72330270      23.43463171      27.82631709 
Ag      27.07907940      27.48883779      16.30116486 
Au      20.86880591      31.38128417      33.09715243 
Au      17.70313459      24.03052600      23.30490601 
Ag      22.98260769      19.35039632      24.51493491 
Au      27.79251839      20.96470928      23.83974450 
Ag      19.58301131      25.84256085      21.96942678 
Ag      24.95828610      30.75187708      14.92091310 
Ag      25.22954989      19.30389071      27.93838224 
Au      19.06326299      26.09492258      24.89826288 
Ag      20.48164439      28.14642604      26.42766835 
Ag      21.38359195      26.02838853      28.27209061 
Au      29.09251660      23.02124063      25.52425460 
Ag      19.16371354      21.75616477      22.18747572 
Ag      24.54762809      17.05597719      23.45888423 
Ag      22.82814698      28.09529940      29.87514856 
Ag      20.63008670      19.50508738      21.12800393 
Au      20.37545127      22.15292951      31.31291495 
Ag      24.75233793      29.93879865      28.62104025 
Ag      18.08889306      28.23007783      23.03093693 
Ag      28.08828375      18.98254420      28.55871999 
Ag      18.91601337      20.07565601      29.81052747 
Ag      29.77064061      22.72146093      22.62930868 
Ag      19.64780721      21.56264428      19.25157072 
Ag      18.17518675      17.81514998      25.27926029 
Au      15.72186207      22.19246991      24.56079393 
Au      16.66640141      26.12438091      21.44631820 
Au      26.45916968      24.91223964      17.32447056 
Ag      28.07064228      29.45704809      26.24150267 
Au      17.25475477      19.91323333      23.53882023 
Ag      18.80635672      17.69742790      22.43750828 
Ag      30.66971557      20.72091417      24.48577019 
Ag      22.10739083      27.42087813      17.76472598 
Ag      21.18185314      19.30944242      18.28200373 
Ag      22.16425412      17.29112257      20.04858262 
Ag      21.89968774      15.51662887      27.55798840 
Ag      19.05168024      24.41153469      32.48279978 
Au      26.49122160      25.59261011      32.32305015 
Ag      14.85059813      24.27031491      22.76686619 
Ag      29.53732529      20.83185586      30.18550595 
Ag      23.82057405      31.92500070      26.71728221 
Ag      22.53312146      15.17354098      24.73130620 
Ag      25.03355563      16.94789206      20.57101652 
Au      28.48609978      27.75931325      30.98329849 
Ag      19.24337053      17.44925896      19.54666229 
Ag      27.71057332      31.21904435      21.52354768 
Ag      15.27833165      24.04313960      19.90207688 
Ag      21.33210729      17.26842929      31.42847841 
Ag      21.19041315      32.09161403      23.18069417 
Ag      14.20863969      24.47554093      25.52429909 
Ag      22.31609151      22.97891235      14.96834268 
Ag      30.66567639      26.72265049      19.59253347 
Ag      18.36887905      19.50989799      17.78290333 
Ag      22.93535018      18.29660285      16.19598979 
Ag      15.44761420      17.47404995      26.09992846 
Ag      30.28009005      30.03365207      27.99145890 
Ag      29.82652093      18.43004804      19.78048807 
Au      13.66197805      21.69004396      22.56391268 
Au      30.34349431      17.34913166      30.97750650 
Au      26.79179173      16.03776849      18.56413177 
Ag      20.92142857      32.32917778      26.35476713 
Ag      19.24331727      27.79922126      17.15467485 
Ag      25.87714039      18.00339550      16.64810429 
Ag      14.50901865      19.58182275      24.38256539 
Ag      19.01175412      33.21205289      20.87287702 
Au      24.00549924      22.37388889      12.55664097 
Ag      34.52026701      22.64707251      27.47453958 
Ag      28.72217842      32.43255512      29.54233172 
Ag      19.37433778      30.98157971      16.55499136 
Ag      23.80357411      16.10967125      18.09717232 
Ag      14.08252564      27.06074424      19.48870681 
Ag      21.13177792      26.79260743      34.13653171 
Ag      19.74393394      28.66458795      32.07057306 
S      20.29542206      16.24893691      33.48233614 
S      28.47906952      32.59028958      19.59551406 
S      24.42039585      22.94443095      35.82296527 
S      24.20363951      18.15952558      35.57112634 
S      12.57670369      18.00657086      24.28361912 
S      32.15436569      17.16446172      29.48451667 
S      31.32920957      14.62943287      21.44616782 
S      29.60495304      18.61885031      16.88836245 
S      28.36363232      21.88624353      33.28710212 
S      23.24045967      27.87075809      34.72857807 
S      13.44513915      30.01674310      24.84833046 
S      16.29969791      18.21945866      17.22735191 
S      32.79079692      23.04541927      19.92542556 
S      27.26052929      30.80401898      33.20449017 
S      22.93555803      32.43547315      32.68705797 
S      17.21596008      31.43858213      17.52939134 
S      11.27069703      22.15118584      22.71073357 
S      25.04692091      13.09020996      26.81235141 
S      33.74230694      29.22532264      27.50781276 
S      28.69180370      26.44676532      33.08296763 
S      23.86007616      24.66002736      11.97368185 
S      27.56622274      25.62492846      13.15305822 
S      19.16701388      33.33445043      30.20822356 
S      28.69572900      17.39592883      32.66640960 
S      21.06407584      34.11390051      24.59070333 
S      30.67988507      32.46619279      28.07919879 
S      28.92989260      29.11528797      16.32810865 
S      33.47450515      17.19164809      23.97629804 
S      34.89326059      21.76138459      23.64587566 
S      19.46408816      13.65912260      25.76070369 
S      20.75090670      33.63816509      19.25046893 
S      12.60907564      19.35440484      19.66294981 
S      18.79732602      30.37511981      33.61548430 
S      31.73952366      30.94720027      23.26981204 
S      35.21939845      27.21117815      23.39759022 
S      31.47850755      30.09777349      31.26172317 
S      23.18054767      13.22868816      23.26543582 
S      32.26847725      19.04777548      19.85674578 
S      28.38518071      14.40423050      17.71368522 
S      15.35145742      30.38009135      29.21121688 
S      31.67792182      21.70567808      31.07077291 
S      20.50988843      26.85642970      14.28382764 
S      17.01141123      26.90556690      16.37731153 
S      27.40924812      12.81555927      22.11309262 
S      16.57548730      33.59906743      26.25517659 
S      15.29060755      21.69957582      31.06112480 
S      20.94575348      17.39861466      14.98774711 
S      24.74239628      28.87829165      13.43448414 
S      20.06986577      22.22233286      14.14098773 
S      21.27711911      31.25836526      15.09338534 
S      22.76328975      33.67029071      28.17422748 
S      13.56037187      17.39422451      28.72877775 
S      24.22800351      33.57028522      22.00584909 
S      27.88741876      20.91891917      13.20357457 
S      16.35093895      23.02542207      16.73741122 
S      26.32558814      16.93762983      14.33059903 
S      17.57563801      14.17138254      30.18987174 
S      28.27007100      13.94885640      29.88376187 
S      26.83024425      33.69038348      30.47155361 
S      32.76468464      28.03850859      19.58236650 
S      24.60334868      14.77367987      32.80359247 
S      14.30831311      29.48365194      19.50373375 
S      13.25422611      25.90287393      27.31789373 
S      34.63942948      20.25197304      27.78768411 
S      30.36950328      23.34909867      16.11573709 
S      18.88479033      25.90657063      34.44915936 
S      35.24584391      24.92705690      27.19885526 
S      20.15017154      20.98058849      34.89797272 
S      32.35646898      25.63899740      30.16539576 
S      23.86997871      20.02233376      12.68512076 
S      16.97377052      33.36800654      22.16787907 
S      15.67346065      26.19686393      30.60189517 
S      11.75708857      26.87267830      22.98126368 
S      24.05530973      13.79381573      17.13515251 
S      13.04300299      24.88011738      19.22745433 
S      22.21714385      14.06120593      29.55165656 
S      16.57474686      17.56692882      32.33783306 
S      15.94047033      15.82507486      21.27841151 
S      15.20955987      15.02382652      26.08240602 
S      25.29818376      32.71558429      16.27018676 
S      29.77135732      13.68257172      26.17523844 
S      19.94944788      14.78121994      18.88572796 
S      26.87819293      33.59375759      25.71040724 
S      12.76574165      21.85524020      27.45396982 
C      20.75598776      14.46921153      33.46655251 
C      30.25908934      32.97001555      19.86387355 
C      23.92876566      24.34948797      36.90500455 
C      23.65527661      19.08232651      37.05989632 
C      11.14597340      18.92267914      24.98889129 
C      32.36399761      15.36462038      29.17928686 
C      31.31996903      12.82601253      21.80391253 
C      31.27019404      19.08970987      16.26462998 
C      28.24564855      22.89118877      34.81992158 
C      22.83059155      29.36128048      35.71708813 
C      13.35604173      31.79919072      24.40775483 
C      16.82504076      16.88110600      16.08191883 
C      33.41038409      24.01837953      18.49173659 
C      27.26467050      32.52143904      33.84565064 
C      22.48821975      34.12583950      32.12684906 
C      17.14358617      33.27526635      17.45793970 
C      10.60530145      22.15847735      20.99714566 
C      26.52473754      12.09909050      27.25341401 
C      34.83047037      28.45667298      28.77355837 
C      28.38851576      27.56031148      34.50799528 
C      22.52942248      24.67786243      10.70010863 
C      27.08419956      26.29404824      11.51463365 
C      17.69289564      33.23007147      31.30624996 
C      29.48244220      18.25023506      34.09009384 
C      19.43891404      34.93506493      24.38123480 
C      32.20016895      32.84261346      29.03442917 
C      28.85349062      30.06985022      14.76018654 
C      34.37759918      16.68593567      25.49305456 
C      35.74350193      21.80484935      22.01734257 
C      17.97803235      12.62529732      25.45416476 
C      21.57244041      35.18909933      19.79883189 
C      12.59491672      17.79365354      18.69658438 
C      18.92097385      29.77958194      35.34790565 
C      33.41306687      31.45538066      23.82253571 
C      35.60032184      28.58869403      22.24495895 
C      32.36279287      29.60682521      32.79910490 
C      21.71001456      12.18751257      22.90553825 
C      33.26450804      17.61137204      20.40580935 
C      27.63282210      12.76150836      18.05619465 
C      14.04260611      29.61083988      30.24758286 
C      32.97359707      20.41423626      30.98913264 
C      19.24658638      26.05070987      13.22404506 
C      15.75920070      28.23780811      16.25932399 
C      26.40208319      11.35203382      22.58688594 
C      14.99550661      33.76074433      27.18478725 
C      14.99194795      20.81978519      32.64010875 
C      21.55740510      16.12786575      13.80951443 
C      23.22648949      29.25355252      12.46481383 
C      20.27694247      20.84323965      12.94261701 
C      21.63743820      33.05286455      15.29954006 
C      23.23170617      35.28408899      27.42981276 
C      11.98307382      17.10956104      29.63575959 
C      25.73113134      34.62812292      22.06513414 
C      29.68092861      21.11835974      12.84606720 
C      16.30694856      21.81605220      15.35293869 
C      28.03355196      16.26469821      14.22144484 
C      17.77852887      12.36320085      29.91027572 
C      29.46929698      13.63788157      31.24187576 
C      26.98269849      35.34160171      29.67069104 
C      32.64057482      29.26920837      18.22107989 
C      25.64368952      14.99440525      34.30385430 
C      12.88209813      30.12329078      20.47123835 
C      11.99747584      27.04846472      26.63351081 
C      36.11955259      19.80771874      26.79322098 
C      30.79004100      24.50031809      14.74322323 
C      18.94757733      24.84796633      35.95436814 
C      36.55494526      24.73348573      25.91928999 
C      20.01574196      19.78743065      36.29069009 
C      32.72693671      25.29881946      31.93431411 
C      25.06450116      19.34942935      11.46660608 
C      15.58698098      33.36764469      20.96119305 
C      15.20440205      25.37980371      32.17564347 
C      10.73321627      27.18496934      21.48578709 
C      22.51168405      13.19872203      16.33793637 
C      12.89573775      24.61363791      17.41414629 
C      21.99638298      12.35730036      28.89761400 
C      16.38979149      15.95332311      33.19086288 
C      14.20442903      15.23162099      21.18997139 
C      13.44632308      14.61865576      26.37845845 
C      27.00986400      33.31296494      15.96701434 
C      31.47729558      13.42845533      25.54184120 
C      18.34219786      14.04476897      18.38097239 
C      28.48719752      34.48391441      25.78400009 
C      12.12693524      22.60963273      28.99923661 
H      21.78450497      14.32118013      33.11850093 
H      20.64730356      14.07533508      34.48343494 
H      20.06224468      13.95057928      32.79293579 
H      30.72218258      33.21160955      18.90090200 
H      30.31909964      33.84184661      20.52600829 
H      30.78651699      32.13152248      20.33211500 
H      24.84479287      24.86324393      37.21964651 
H      23.28545672      25.06293517      36.37883116 
H      23.40996530      23.95765764      37.78672323 
H      23.21556877      18.38109629      37.77769277 
H      24.54180521      19.55441831      37.49872343 
H      22.93141264      19.86715204      36.81096332 
H      11.30975892      19.03984453      26.06823718 
H      11.03425574      19.91134644      24.52983139 
H      10.24361538      18.32714902      24.80849303 
H      33.17727322      15.25942887      28.45069183 
H      32.65011889      14.87260588      30.11525298 
H      31.45146267      14.90959861      28.77685951 
H      30.30882350      12.46079408      22.01709538 
H      31.72796297      12.30100108      20.93285879 
H      31.96945026      12.64651612      22.66823833 
H      31.27160770      20.12076591      15.89505908 
H      31.98394393      18.99868171      17.09398774 
H      31.53962044      18.39958774      15.45697160 
H      27.75012702      22.30248879      35.59955709 
H      29.26583742      23.14438562      35.13126457 
H      27.67694042      23.81111011      34.64033740 
H      22.15695634      30.03433623      35.16892135 
H      22.36357961      29.04214991      36.65601786 
H      23.76699466      29.88871900      35.93427115 
H      12.68093935      32.30205264      25.10934337 
H      14.34180498      32.27832984      24.43043545 
H      12.94095531      31.86930421      23.39529656 
H      16.88406619      17.32263006      15.07974980 
H      17.81051044      16.48421457      16.35196110 
H      16.07667065      16.08140851      16.08893334 
H      32.61348726      24.13962700      17.74765056 
H      33.76965244      24.99878151      18.82258399 
H      34.23670371      23.44937879      18.04886962 
H      27.40897767      33.24836740      33.03999584 
H      26.28715122      32.68697837      34.31498449 
H      28.05716841      32.61232614      34.59652534 
H      21.71256337      34.09980438      31.35381547 
H      22.13910278      34.69896942      32.99301064 
H      23.40038130      34.58253418      31.72250730 
H      16.24989440      33.60130650      18.00248245 
H      18.03381354      33.73333132      17.90342735 
H      17.05607860      33.57684896      16.40807179 
H      11.21565141      22.78663028      20.33849883 
H      10.59302231      21.12983594      20.61816504 
H       9.58362056      22.55340102      21.04522842 
H      27.38795175      12.72299497      27.50008093 
H      26.27548895      11.48248071      28.12490428 
H      26.77134280      11.45052934      26.40402553 
H      35.82792804      28.90254306      28.68800764 
H      34.40877124      28.68552014      29.76003311 
H      34.89588336      27.37060609      28.64633091 
H      28.33585055      26.93607893      35.40804605 
H      29.22524149      28.26452684      34.58836483 
H      27.45844131      28.12360369      34.38559585 
H      22.35433514      25.72332230      10.41895904 
H      22.87053749      24.11519224       9.82388983 
H      21.60409247      24.24041840      11.08741076 
H      26.19791467      25.78229140      11.12646329 
H      26.86288519      27.36127051      11.63252838 
H      27.92899070      26.15885316      10.82936268 
H      18.03813717      33.03741283      32.32900782 
H      17.16626178      34.19027272      31.26712088 
H      17.01674227      32.42633906      30.99427464 
H      30.33975094      17.66246029      34.43489014 
H      29.79255830      19.26565848      33.82082123 
H      28.72686742      18.30414473      34.88341576 
H      18.61529552      34.21780439      24.32365015 
H      19.27063756      35.59827520      25.23757989 
H      19.46417945      35.52626507      23.45800848 
H      32.17501885      32.37672427      30.02431789 
H      33.05840583      32.45325277      28.47444403 
H      32.28013598      33.93166050      29.13054060 
H      29.59919117      30.87224351      14.79026650 
H      29.09116023      29.38198798      13.93995351 
H      27.85503593      30.49387928      14.59092507 
H      34.08966169      15.65454029      25.72898367 
H      35.45328155      16.72297701      25.28448247 
H      34.13742462      17.33654216      26.34138761 
H      35.03434871      21.65024857      21.19632045 
H      36.20255092      22.79484711      21.91012008 
H      36.52171228      21.03431231      21.99900109 
H      17.75164105      12.04975637      26.35966590 
H      17.11050790      13.23899754      25.19069005 
H      18.21435345      11.93573998      24.63475772 
H      22.41139550      35.37632054      19.11815630 
H      20.85579924      36.01496914      19.73616354 
H      21.95769387      35.09404977      20.81975040 
H      12.72190250      18.05736698      17.64011069 
H      13.41315596      17.12570858      18.98965948 
H      11.63099137      17.29300965      18.84035376 
H      18.88522471      30.64138135      36.02330355 
H      18.05812265      29.12680983      35.52503011 
H      19.83781360      29.20551312      35.51646819 
H      33.97945959      30.60933045      24.23519129 
H      33.94940832      31.88397056      22.96792667 