699
Properties=species:S:1:pos:R:3 i=76 optimized=T E=-11184.5234004234 pbc="F F F" jobid=279_84-Ag-40_1-000005-PBE
Au      33.17551552      25.45549000      26.12548277 
Au      32.10108630      29.33849508      21.54956692 
Au      34.62649199      28.09911577      25.50205217 
Au      29.90342347      14.70302024      19.75335261 
Ag      33.76115442      19.65110762      23.72253796 
Ag      27.12923767      23.57165465      13.33021287 
Ag      18.23578317      33.13142072      27.96580608 
Au      28.70112163      31.14074272      18.22882769 
Ag      24.93696074      21.21363849      23.25951112 
Au      26.28481481      23.25626410      24.93226730 
Ag      28.21729042      25.10379897      23.67769628 
Au      23.80509018      21.60738511      28.99288944 
Ag      23.32300130      27.88092998      27.03461696 
Ag      26.88989861      23.07025790      22.04332663 
Au      22.37956083      19.51312957      27.36262570 
Au      27.22079566      21.14953501      26.72840519 
Ag      22.05038823      21.48876324      22.72641204 
Au      21.02919162      23.56923625      20.87999074 
Ag      27.62621122      25.30852407      26.60447640 
Ag      19.94234404      23.99913027      26.67797203 
Au      25.47324683      21.04891044      20.38392104 
Au      24.27438471      25.72485005      28.82805877 
Ag      23.80648026      27.68025727      24.10394127 
Au      26.16776457      27.62524067      27.60959731 
Au      20.89637013      21.86854848      28.39791212 
Ag      22.84868823      23.69754595      27.17484651 
Ag      21.48071627      21.66419731      25.58804833 
Ag      19.52195169      19.78884242      26.87199256 
Au      25.85804444      19.08305090      25.05410475 
Au      25.23286230      23.59707568      30.79148678 
Au      22.97386613      25.37816755      19.60748366 
Au      20.96464064      27.94382075      23.53265042 
Au      26.62697227      27.37686593      24.75533724 
Ag      22.60649747      21.35301785      19.82512356 
Au      21.92878297      25.81061883      25.37248831 
Au      27.15936128      25.46587167      29.49383822 
Au      20.14177491      19.67480822      24.01455391 
Au      25.89348007      25.07123384      20.21789493 
Au      23.54135338      19.18985146      21.64631725 
Au      22.31665010      23.89345845      30.02735822 
Ag      21.04833719      17.43222685      25.78116574 
Ag      21.53567331      27.64618921      20.64051444 
Au      24.37678613      27.42683142      21.28150465 
Au      24.54082640      23.10738479      18.48577546 
Ag      28.61649685      23.18409276      28.45895094 
Au      18.60065153      21.96470268      25.10126795 
Au      26.74394461      21.26888157      29.64342556 
Ag      22.33786995      30.04910235      25.14400535 
Au      27.25823497      27.10590425      21.86720160 
Au      21.78779587      19.66779889      30.21020319 
Ag      18.46806650      26.32611840      27.73063215 
Au      23.15884823      21.72316841      31.89721873 
Ag      21.58683646      23.38053008      17.94116462 
Ag      17.04463018      24.26430278      26.20104864 
Au      27.42564024      22.85604397      19.03690466 
Au      23.88752676      17.15255965      26.30769732 
Au      23.29290991      17.38221724      29.24453200 
Au      25.16088565      29.73602235      25.76645143 
Au      21.63046351      17.27430477      22.87138290 
Au      28.74770623      18.77229933      25.67065820 
Ag      22.85478791      29.76424291      22.22797231 
Ag      25.32929258      25.33090437      23.10613197 
Ag      20.05565992      25.62633161      18.97990126 
Au      29.49827241      27.18432769      25.40098222 
Ag      19.36038655      24.20312407      29.55815343 
Ag      17.96435864      22.15237860      27.94955655 
Au      20.01024063      28.29192800      29.36783770 
Ag      23.70343528      25.85734874      31.71074160 
Ag      20.89162644      26.24160939      31.16713382 
Ag      26.41173325      18.91632149      22.13728611 
Au      24.72978429      19.51751073      30.87590447 
Ag      20.40826308      17.57816325      28.66836241 
Au      28.88932815      24.85500451      20.76919419 
Ag      19.49487562      30.21681498      24.57209216 
Au      25.74071007      29.55099115      22.84565966 
Au      24.91431795      27.10377842      18.30945642 
Au      28.36864487      20.80819570      20.94032029 
Au      29.08992627      27.48567820      28.34129117 
Au      30.06575760      20.91630216      27.32125213 
Au      18.13765634      23.83298505      20.32319793 
Ag      17.68742193      19.62595167      20.60164544 
Au      25.64060566      27.74266507      30.51629880 
Au      28.13263534      23.40380278      31.33118216 
Ag      21.87637828      30.20065288      28.11393131 
Au      21.78131722      24.10472598      32.90649016 
Ag      18.63185939      27.93948246      20.09854271 
Ag      16.31599432      21.91393274      21.60092048 
Au      30.49207225      25.13588948      27.19508151 
Ag      23.42282879      23.51139595      24.33884008 
Ag      19.99843920      30.00957404      21.66324018 
Au      16.60471110      20.03005710      26.38913398 
Ag      26.75675581      16.99055951      26.90675676 
Au      29.91918754      25.28353382      30.08129860 
Au      17.56782963      28.39686339      25.87355840 
Au      16.14167757      26.28930821      24.25930915 
Au      28.53665677      29.18185707      23.45632470 
Au      27.86865455      26.86101153      18.99460420 
Au      24.12752161      19.07139892      18.68613485 
Ag      27.40559143      16.77899653      23.93659116 
Au      26.96180193      18.71375924      19.25124220 
Ag      26.02425991      21.41504503      32.60739398 
Au      12.41788199      18.81952821      21.80902552 
Ag      23.11102283      21.12873999      16.90242547 
Au      26.34562065      29.20090455      19.91106469 
Au      21.03651916      19.82544545      32.86241366 
Au      26.16447266      17.20765140      29.78757437 
Au      29.22896623      18.65498383      22.75029108 
Au      27.56730981      29.74340423      29.30632679 
Ag      15.15116056      22.39016728      27.43054074 
Ag      26.06627303      20.83584944      17.33972116 
Au      24.55710985      23.76371775      33.54306655 
Au      23.55111738      25.16165887      16.62441187 
Ag      17.60553845      17.93089658      28.16521957 
Au      19.05889871      30.36291585      27.48424628 
Au      23.51590413      29.48404303      19.25245118 
Ag      22.43411582      25.59246105      22.49811154 
Ag      16.14884072      20.15201844      29.30086844 
Ag      27.55012367      19.15423988      31.42510823 
Au      29.18139327      28.95717839      20.59256117 
Au      16.50919223      24.42940149      29.01659426 
Au      31.98367194      22.82229247      26.18845179 
Ag      16.64632982      21.65405709      18.71227317 
Au      24.88620943      31.53737139      20.80595946 
Au      21.96826683      31.68647107      20.30837041 
Au      20.63870328      25.42881652      16.15467634 
Au      24.30571505      31.86139144      24.01898075 
Au      20.56874365      29.63772314      18.81798204 
Au      23.14833810      15.02122069      21.53477325 
Au      30.24789114      22.55928634      19.53458725 
Ag      25.11375953      22.91001549      15.57829576 
Au      18.75615580      23.64087611      17.27000644 
Au      28.87243565      20.60435420      17.99401875 
Au      17.53156595      22.37473007      31.00701699 
Au      17.18091881      28.66490590      28.81131464 
Ag      27.94270614      16.58500922      21.02439992 
Au      15.59787148      26.82914911      27.07348130 
Ag      18.91037384      15.65918723      26.98654796 
Au      19.69175563      15.42578085      23.98810935 
Ag      18.03091787      26.64431096      30.71930478 
Au      20.22137355      15.39793708      21.21323913 
Ag      27.22571811      31.56089555      24.39849402 
Au      24.88962604      15.17570630      28.30887574 
Au      23.95098989      23.30561362      21.46960233 
Ag      20.20871297      21.21985415      16.35657256 
Ag      27.98519376      22.72224933      16.06830441 
Au      31.37195501      20.42198242      21.76141675 
Au      26.77376514      31.79066836      27.55152749 
Au      25.72623847      14.91252972      25.16882420 
Au      28.73877576      16.29137977      28.85237631 
Ag      26.02879297      14.80637552      22.24982800 
Au      32.53070496      22.55487995      23.33380222 
Au      25.58400352      30.50789453      31.34053384 
Ag      22.74844044      30.75282824      30.89136363 
Au      24.31792756      16.98995556      31.99067605 
Ag      31.26566809      17.91793981      24.72281924 
Au      17.08593482      26.00284417      18.58548945 
Ag      31.50075331      22.98663721      28.95368247 
Ag      29.36397685      16.02480223      25.96866443 
Au      15.50125262      29.16692204      23.92976328 
Au      16.02505146      28.95286492      21.02216057 
Au      16.96159416      31.16495765      25.58076676 
Ag      29.38058498      24.81610874      17.81877794 
Ag      30.70588421      18.07953978      27.61213615 
Ag      18.62205192      17.47062934      30.89980214 
Ag      23.91919461      19.62539246      33.60954394 
Au      18.02538839      30.73103488      19.71549872 
Au      17.42533700      30.98872094      22.59890410 
Ag      14.13394810      27.03372077      22.28692850 
Ag      32.62526491      20.00208217      26.46446177 
Ag      24.77861667      25.54381012      25.97694246 
Au      32.97535950      26.66706337      23.10442516 
Au      24.86863205      20.02708710      14.95568923 
Au      19.93756605      31.01754543      30.14152470 
Au      31.75181708      27.75546616      27.12315442 
Au      23.83654583      28.53505607      32.60018456 
Ag      29.97484863      15.91260554      22.99581751 
Au      22.50692037      17.07525876      34.51856711 
Ag      13.94658402      19.43160791      27.56125303 
Ag      24.15074297      28.00782549      15.75467078 
Ag      15.53924707      17.55669719      30.65536038 
Ag      25.32435717      25.68426227      14.58332574 
Au      28.81579162      30.72222404      32.34331574 
Au      22.47588141      30.19105913      16.77912831 
Ag      22.20934760      21.88197205      35.01390692 
Au      31.39001142      28.25209965      31.27688548 
Ag      19.49922532      14.78254321      29.65110321 
Au      22.56983579      25.31062385      13.02763923 
Ag      16.08500384      15.15475897      28.07887038 
Au      25.60959444      33.62670679      29.55623825 
Au      26.73191870      14.56331013      31.12385848 
Ag      28.36434974      13.64983852      24.10871964 
Ag      16.23037037      17.23426421      19.48566919 
Ag      16.08212594      17.25116897      23.20845017 
Au      20.67741240      15.41926308      17.62554947 
Ag      11.97649274      24.69048511      23.12569113 
Au      14.51526205      30.08772671      27.05592972 
Ag      24.33982405      21.36942891      26.11878714 
Au      14.91963610      19.94677284      20.11035645 
Ag      25.58632346      31.13092074      18.02260004 
Au      28.38018949      20.32263738      14.43450991 
Ag      30.21616769      27.01212241      22.53264559 
Ag      31.07002464      24.90958201      24.29594964 
Au      31.79894521      24.76487771      21.47926819 
Ag      20.51048555      23.77939115      23.81337441 
Au      25.18098229      14.71791173      16.07862052 
Au      30.76253393      29.71547466      25.11665873 
Au      25.72559923      23.42101068      27.83293029 
Au      26.82227425      28.59455696      17.00844735 
Au      20.62195498      31.39098338      33.17152324 
Ag      17.65371609      23.98851364      23.28116416 
Au      22.98708139      19.31483942      24.48883008 
Ag      27.78233572      20.94713365      23.83879304 
Au      19.58575134      25.88767776      21.94040483 
Ag      24.93772408      30.87905769      15.09991363 
Au      25.23903110      19.27576775      27.92596391 
Ag      19.00924881      26.07812262      24.82902153 
Au      20.52958145      28.10371116      26.41465090 
Au      21.36532378      25.97026707      28.26151167 
Au      29.12804662      23.07231632      25.52763921 
Au      19.16851342      21.74813434      22.16455896 
Ag      24.55841891      16.99978677      23.43374421 
Au      22.82727304      28.09402861      29.91660596 
Au      20.65833975      19.48061467      21.09408573 
Au      20.29967786      22.10170594      31.29076071 
Ag      24.73341995      29.99361840      28.72493369 
Au      18.01200258      28.23232061      22.95178096 
Ag      28.14717703      19.02264832      28.55297743 
Au      18.96814700      20.03251744      29.70103212 
Au      29.76277863      22.76171505      22.63946949 
Au      19.61338184      21.56199244      19.21141713 
Au      18.23477648      17.76500884      25.21550708 
Au      15.68907086      22.13581224      24.49290532 
Au      16.67373421      26.09177867      21.40708777 
Ag      26.49850567      24.96488770      17.20832313 
Ag      28.02596079      29.51889934      26.32597244 
Au      17.18507244      19.87705590      23.47340781 
Au      18.77232949      17.63250409      22.34997611 
Ag      30.66122549      20.72010542      24.50206405 
Ag      22.06427840      27.43039199      17.73230507 
Au      21.23209355      19.35501717      18.24946891 
Au      22.22541696      17.18590714      19.86165910 
Ag      21.97868688      15.36991510      27.57857284 
Au      18.97356058      24.34177347      32.45772428 
Ag      26.48704823      25.60048861      32.43701013 
Ag      14.80482511      24.18587762      22.68698435 
Ag      29.59522123      20.92548257      30.20591785 
Au      23.78177050      31.97411364      26.83282135 
Au      22.57880434      15.14832679      24.75648191 
Au      25.05948521      16.88218162      20.49276863 
Au      28.44644185      27.81019618      31.19876040 
Ag      19.33818858      17.43586011      19.48324173 
Au      27.74682720      31.22328848      21.60265070 
Au      15.33237624      24.01685022      19.88137138 
Au      21.41047550      17.10434805      31.40478130 
Au      21.28322861      32.06157532      23.12018209 
Au      14.20146953      24.37822144      25.41016759 
Ag      22.27642121      23.15140795      14.98309840 
Ag      30.67304660      26.76792295      19.58787952 
Au      18.41355496      19.42268797      17.73326327 
Ag      22.92133037      18.18696440      16.28035262 
Au      15.56561081      17.38307944      26.14707171 
Au      30.26231703      30.02567497      28.01512053 
Au      29.71791172      18.42982868      19.85044192 
Ag      13.66585168      21.45354626      22.51303999 
Au      30.63894239      17.52236068      30.82962855 
Au      26.75859698      15.89328249      18.49353359 
Au      20.65742755      32.24671605      26.30416769 
Ag      19.16490362      27.85372261      17.20906210 
Au      25.84679482      17.96421065      16.67306961 
Au      14.46056540      19.47388253      24.46909184 
Au      19.10837376      33.40597920      20.75577415 
Ag      24.11000966      21.95885394      12.84219511 
Au      34.75464441      22.42907612      27.34943438 
Ag      29.03323177      32.30740510      29.44581204 
Ag      19.25873679      31.05951949      16.58529416 
Ag      23.65028418      15.07247227      18.70621301 
Au      13.71404325      26.97347213      19.32331988 
Ag      20.97187491      26.75288402      34.10869725 
Ag      19.63336026      28.68865158      32.09061438 
S      20.74382408      15.91489579      33.44580937 
S      28.60984119      32.79350129      19.92005072 
S      24.21134239      23.00706542      35.83873348 
S      24.29107946      18.18364385      35.60602054 
S      12.36852899      18.21860717      24.07785290 
S      32.40256041      17.31936507      29.27078124 
S      31.47194971      14.59785020      21.50088562 
S      29.63093592      19.23505265      16.10781053 
S      28.37076561      21.97241943      33.30504404 
S      23.05015670      27.87803824      34.78060525 
S      13.42850191      29.94302990      24.96442794 
S      16.43621661      18.10131484      17.19699763 
S      32.59849140      23.15416308      19.79638292 
S      26.74040205      30.95739953      33.44621158 
S      22.70296955      32.42498615      32.78147686 
S      17.09764922      31.51790041      17.57980701 
S      11.38675255      22.37777384      22.84545837 
S      25.06265772      13.22239298      26.85578497 
S      33.86120161      28.97121435      27.54542244 
S      28.49561239      26.68867957      33.40195212 
S      24.14118441      24.13217334      11.71506164 
S      27.40652126      25.98751455      13.32490215 
S      19.15851522      33.32688022      30.20398033 
S      29.10851883      17.63956841      32.62165983 
S      21.29704939      33.96237043      24.71014600 
S      31.05941653      32.30553753      27.94377936 
S      28.93527119      29.64187152      16.40783804 
S      33.48945742      17.24193036      23.92468502 
S      34.86091182      21.83687142      23.55258258 
S      19.10048571      13.61463726      25.49788743 
S      20.86983533      33.60525862      19.19796713 
S      12.56641560      19.42890650      19.54269417 
S      18.58064442      30.30571431      33.66465022 
S      31.81463097      30.93884105      23.29585621 
S      35.32253628      27.23359342      23.42672000 
S      31.07311625      30.56708382      31.65085157 
S      23.14112139      13.26546901      23.24064578 
S      32.06628297      19.11595441      19.79921567 
S      28.57725442      14.42343815      17.82955494 
S      15.42685585      30.34929834      29.21600231 
S      31.73105566      21.82059685      31.12877431 
S      20.80079566      26.56773941      13.96907574 
S      17.05056531      26.89172314      16.30956757 
S      27.44299162      12.77846033      22.02283335 
S      16.71556846      33.53585584      26.10833570 
S      15.20855135      21.65252040      31.10688577 
S      21.05540386      16.66896333      15.64841339 
S      24.78761309      29.01655513      13.56745637 
S      20.13953688      22.17187133      14.07776397 
S      21.14403581      31.26418071      15.06534188 
S      23.52800324      33.80519972      28.44182667 
S      13.62597609      17.56263377      29.18398166 
S      24.34384549      33.50640027      22.18065275 
S      27.38181177      21.28427380      12.52595840 
S      16.48280975      22.99253464      16.60530694 
S      26.03281206      16.44402055      14.72073728 
S      17.10606271      14.52858695      30.17000127 
S      28.58958056      14.00976223      29.78266092 
S      27.63876827      33.87719514      30.73317829 
S      32.77270559      28.11074802      19.62374644 
S      25.06035512      14.80596496      32.76983507 
S      14.22858200      29.26864735      19.38899152 
S      13.41080641      25.75336492      27.29061112 
S      34.79631303      20.09618533      27.68600562 
S      30.36176881      23.62706247      15.89008395 
S      18.66560867      25.91091472      34.31487152 
S      35.27213097      24.71656046      27.14469366 
S      20.06140533      20.71275638      34.88663080 
S      32.06131741      26.00689503      31.02680999 
S      23.71138347      19.50846489      12.86668525 
S      17.30320065      33.41312204      22.26573205 
S      15.59378358      26.06064873      30.64067885 
S      11.74948948      27.08726563      22.96936719 
S      24.28311085      13.02269951      17.44161874 
S      13.09410549      24.70360689      19.13708665 
S      21.63930438      13.64707351      29.31848627 
S      16.90166192      17.61587769      32.66169667 
S      15.71237069      15.70784358      21.31349219 
S      14.73458864      15.10431575      26.03522945 
S      25.16611639      32.92228825      16.37742644 
S      29.82003864      13.60830795      26.06770038 
S      20.08367592      13.86015302      19.31817044 
S      27.06206349      33.57309592      25.84540643 
S      12.79382536      21.61092071      27.27627741 
C      21.33100830      14.18596103      33.27590591 
C      30.36870570      33.10648260      20.34298876 
C      23.58750196      24.45061075      36.78794116 
C      23.61913703      19.01031536      37.10025964 
C      10.98981660      19.17255218      24.81892335 
C      32.61878205      15.51533698      28.99933977 
C      31.46951883      12.79966839      21.88028444 
C      31.33629072      19.85362177      15.82806721 
C      28.25516946      23.03542388      34.79490826 
C      22.62678729      29.40664030      35.69921156 
C      13.23044936      31.67656959      24.39597961 
C      16.98396506      16.70658775      16.13296786 
C      33.14379852      24.13731144      18.35169219 
C      26.51818933      32.70904496      33.92995244 
C      22.33120076      34.09983353      32.13551869 
C      17.00592189      33.35270519      17.55356266 
C      10.57204214      22.36786919      21.19720040 
C      26.50451145      12.20886837      27.34796076 
C      34.77587606      28.08655509      28.86405049 
C      27.92857674      27.84476424      34.70383613 
C      23.23682464      23.88311524      10.12939486 
C      26.94497099      26.57654830      11.64913514 
C      17.67135931      33.30514981      31.28295643 
C      29.98538444      18.60919211      33.91198282 
C      19.84138609      35.03822551      24.43113193 
C      32.62016689      32.38137277      28.89665249 
C      28.73855605      30.61840825      14.86897594 
C      34.43339655      16.67450170      25.39391482 
C      35.56645758      21.89301701      21.85774729 
C      17.45934092      13.02445975      24.92932315 
C      21.81613648      35.09986733      19.68484508 
C      12.56999113      17.87424834      18.56734776 
C      18.70691920      29.70624774      35.39477564 
C      33.50230604      31.37860570      23.85991368 
C      35.72515739      28.64414520      22.32763698 
C      32.00956732      30.87207653      33.20516820 
C      21.66482621      12.24281939      22.88429279 
C      33.09641232      17.69264512      20.30649260 
C      27.97246616      12.70460440      18.05045745 
C      14.21873858      29.59480639      30.37120333 
C      33.09227047      20.60615801      30.95843246 
C      19.32903807      25.90730640      13.09156385 
C      15.79780462      28.22523328      16.20711928 
C      26.40165105      11.35019556      22.52950711 
C      15.11426899      33.85190813      26.95321097 
C      15.02300634      20.78657354      32.71469702 
C      21.70555419      15.46512521      14.42421109 
C      23.27676638      29.34006269      12.57676508 
C      20.37844731      20.78961160      12.89479855 
C      21.53713865      33.05634045      15.18772045 
C      23.80289315      35.28041652      27.38340662 
C      12.26352139      18.16741517      30.26591850 
C      25.87979023      34.49216053      22.31315367 
C      28.77807630      21.39203982      11.32954499 
C      16.57314386      21.80068597      15.21637505 
C      27.80958325      16.07530084      14.46359850 
C      16.83878872      12.70868404      30.29860676 
C      29.91474991      13.76087128      31.02855206 
C      28.20004917      35.55654143      30.23931211 
C      32.66187651      29.32096834      18.24552089 
C      26.05990676      15.13223053      34.27628957 
C      12.86351783      30.07616201      20.31136670 
C      12.12517290      26.90785050      26.68922588 
C      36.24198572      19.60981057      26.66137176 
C      30.65499960      24.80991219      14.51825312 
C      18.69085203      24.83337376      35.80537542 
C      36.54851644      24.68593701      25.82750737 
C      19.95866117      19.39038065      36.15464853 
C      32.05214309      25.35101755      32.73943496 
C      24.92522996      18.67589205      11.77700413 
C      15.80756817      33.65243280      21.22951271 
C      15.18053108      25.22851977      32.21897449 
C      10.63339731      27.25249289      21.51548098 
C      22.79694697      12.36852835      16.58530443 
C      13.01797709      24.36906134      17.33480790 
C      21.32029144      12.10617153      28.36993477 
C      16.75717967      15.97623135      33.47068938 
C      13.91785332      15.32555258      21.23469638 
C      12.95891093      15.15039732      26.48914196 
C      26.77628642      33.69968800      15.94586354 
C      31.54163282      13.34078153      25.48557955 
C      18.30677430      13.47935956      19.05625360 
C      28.74625622      34.28244885      25.99767230 
C      12.02215109      22.02225650      28.89045739 
H      22.38252260      14.14539312      32.97231050 
H      21.19889957      13.68986054      34.24447468 
H      20.71089502      13.69834086      32.51345418 
H      30.83823616      33.62693236      19.50050696 
H      30.38477150      33.74704758      21.23248072 
H      30.89969562      32.17375374      20.56029961 
H      24.43092116      25.11998443      36.99229597 
H      22.82333538      24.99998079      36.22820925 
H      23.16974358      24.08310639      37.73240276 
H      23.30831411      18.25032062      37.82529135 
H      24.43250293      19.61427808      37.51965060 
H      22.77870715      19.67047832      36.85894555 
H      11.13526850      19.17350515      25.90600582 
H      10.97350607      20.20375932      24.44854549 
H      10.05610574      18.66022564      24.56008975 
H      33.40132598      15.39748358      28.23990830 
H      32.94751999      15.04891017      29.93454359 
H      31.69219282      15.04922109      28.64673283 
H      30.46670510      12.44712566      22.14799084 
H      31.83368761      12.25892172      21.00001014 
H      32.16019522      12.63915209      22.71555529 
H      31.34330644      20.94328411      15.70533637 
H      31.92785270      19.57175370      16.70839027 
H      31.73612304      19.36375430      14.93300034 
H      28.24193768      22.37542489      35.67069621 
H      29.13310286      23.68995905      34.82997740 
H      27.34081918      23.64005098      34.77800218 
H      21.95150591      30.05239490      35.12020733 
H      22.15392543      29.11965044      36.64597405 
H      23.55742717      29.94895005      35.90371178 
H      12.51330067      32.18006250      25.05425936 
H      14.18975103      32.20509466      24.40164063 
H      12.83073479      31.64016146      23.37539060 
H      17.21127905      17.10235147      15.13637530 
H      17.87722590      16.21457030      16.53478553 
H      16.15768041      15.98933989      16.06575153 
H      32.41018757      24.91032041      18.09318181 
H      34.10317194      24.60314698      18.60467712 
H      33.25889076      23.45515568      17.50134422 
H      26.84677895      33.38884833      33.13728949 
H      25.44865444      32.85054257      34.12933024 
H      27.09944163      32.87880185      34.84372744 
H      21.51208118      34.07696089      31.40776848 
H      22.06484028      34.74579900      32.97959375 
H      23.24446316      34.47007427      31.65257432 
H      16.09581872      33.65903244      18.08246826 
H      17.87938029      33.80498022      18.03653247 
H      16.94459176      33.67946100      16.50895000 
H      11.17506001      22.89578682      20.45045653 
H      10.43844327      21.32437983      20.88757647 
H       9.59392195      22.85324496      21.29021911 
H      27.41268631      12.80760270      27.45990427 
H      26.26987082      11.72245052      28.30224222 
H      26.65886079      11.44957683      26.57125625 
H      35.77228319      28.53669751      28.94292672 
H      34.21957674      28.23125233      29.79913219 
H      34.86408008      27.01711071      28.64579080 
H      27.91612563      27.28724889      35.64857041 
H      28.63060857      28.68384619      34.77616330 
H      26.92624295      28.23046752      34.49384987 
H      23.10891271      24.85565253       9.64082981 
H      23.85287817      23.23178944       9.49826735 
H      22.26028725      23.41888831      10.29533538 
H      26.19079064      25.92509601      11.19551318 
H      26.54053319      27.59113739      11.74765368 
H      27.85021278      26.58827325      11.03092109 
H      17.99073883      33.08826932      32.30972808 
H      17.21203948      34.29963238      31.23679155 
H      16.95056519      32.54873645      30.95508700 
H      30.84238379      18.02936896      34.27117199 
H      30.31195474      19.58217007      33.52925207 
H      29.27495666      18.76650238      34.73246221 
H      18.90663300      34.47070068      24.40655849 
H      19.80236173      35.77205131      25.24511003 
H      19.98222041      35.55106477      23.47164834 
H      32.46969774      32.03802515      29.92536870 
H      33.37094512      31.75384573      28.40204464 
H      32.94721980      33.42861152      28.89701899 
H      29.57519539      31.32106360      14.78494676 
H      28.76337027      29.90573187      14.03587285 
H      27.78461589      31.15840387      14.85325665 
H      34.14794875      15.63420477      25.59068545 
H      35.50388038      16.71758261      25.16355286 
H      34.21636048      17.28557900      26.27718767 
H      34.82603471      21.59517087      21.10794005 
H      35.88516605      22.92289841      21.65754082 
H      36.43359330      21.22382813      21.82008077 
H      16.94250254      12.55919051      25.77717741 
H      16.84728969      13.84507971      24.54265342 
H      17.61702411      12.28134481      24.13893204 
H      22.69074556      35.15112900      19.02459416 
H      21.18626006      35.98432457      19.53987494 
H      22.15145664      35.03126543      20.72488113 
H      12.90620653      18.12784469      17.55531759 
H      13.24931468      17.13026829      18.99604974 
H      11.54823572      17.47916302      18.53684013 
H      18.64121418      30.56219470      36.07549364 
H      17.86043347      29.02966849      35.56134944 
H      19.63889831      29.15828688      35.56800751 
H      34.03960753      30.50059975      24.24465594 
H      34.05200178      31.82830498      23.02502429 