156
Properties=species:S:1:pos:R:3 i=105 optimized=T E=-1647.7226541833 pbc="F F F" jobid=36_24-Ag-19_4-000006-PBE
Au      16.11442566      15.81611422      14.41251852 
Au      16.02607577      18.42949730      15.80322167 
Ag      17.93566626      16.32044791      16.80957730 
Au      16.76014648      13.98051928      18.07466388 
Au      14.95367747      15.93562729      17.20836802 
Au      17.64345302      19.09915978      18.05682880 
Au      14.39197251      17.93808388      13.59912847 
Au      19.19282574      18.64289381      15.52025908 
Ag      17.21480586      18.11286109      13.19713719 
Au      19.30975113      16.24129427      14.14728246 
Ag      15.16033911      13.31829686      15.65102261 
Au      13.01929291      17.85889315      16.35511796 
Ag      15.84871324      21.02919896      16.88612164 
Ag      17.29348852      21.06620131      14.31222299 
Au      14.92965041      18.83488549      18.45938824 
Ag      19.92726576      13.86262481      17.68427154 
Au      17.93229066      13.78126124      15.13664115 
Au      13.09289244      15.41142906      15.06883881 
Au      13.91352058      14.96287383      11.77522206 
Au      13.77837453      13.13443730      18.77282874 
Au      17.38595095      15.68386976      11.25439318 
Au      16.67511647      16.45350856      19.39773664 
Ag      12.22786129      15.50526119      17.79650991 
Au      13.44348912      16.36935414      20.34376305 
Au      19.85233310      16.86134140      19.46364605 
Au      13.80113833      20.79558778      14.66162839 
Au      20.74423010      18.73499404      12.25100453 
Au      16.15910458      13.43624289      12.98373287 
Au      20.73609792      16.52359339      16.54804805 
Au       9.43213324      16.19229097      16.60558899 
Au      10.73002824      17.75529630      13.47933184 
Au      23.07493588      17.20779002      14.68672790 
Au      16.87116307      19.46740020      21.51725201 
Au      16.40668632      22.54967040      19.48679276 
Au      16.69830356      10.37102517      17.08248150 
Au      16.01698416      10.18752584      13.56684482 
S      16.53666835      17.15829794      21.73332585 
S      20.20355661      14.58041530      19.98021038 
S      23.02527667      18.19273673      12.55598486 
S      23.16194730      16.28874482      16.86204396 
S      18.61455104      19.61586837      11.79341329 
S      19.64259290      15.40183166      11.87859068 
S      15.29438119      16.08039157      10.21864130 
S      13.64907652      11.75296727      16.87635645 
S      13.85593232      14.12433378      20.92739866 
S      20.16466624      12.89869047      15.47776203 
S      12.53773664      18.07279534      12.01576649 
S      11.97501597      20.03148441      15.95108310 
S      12.50356611      13.84952986      13.29587415 
S       9.90887546      14.95650706      18.54764055 
S      12.93885332      18.61190974      19.84710869 
S      19.32288945      21.06049657      15.62830784 
S      19.62031579      19.21234797      19.47990179 
S      15.30585665      21.72366071      13.09787822 
S      15.67509428      23.45897226      17.44889041 
S      17.25580105      21.78829077      21.53787821 
S      17.62919975      11.78163148      18.69901952 
S      16.15298717      11.44360688      11.58719324 
S       8.74065894      17.34788601      14.67415675 
S      15.84184695       8.86076000      15.49440928 
C      17.19739621      24.25802928      16.78961934 
C      16.10191905      22.45274253      22.80429544 
C      15.12744137      23.53067983      13.38263733 
C      12.35670885      19.80535183      11.43927176 
C       8.27193217      19.00566638      15.31286144 
C      11.98572520      21.06418177      17.46585004 
C      13.20063908      19.55241876      21.40056737 
C       9.56014580      16.15313162      19.90235912 
C      12.27983587      13.53745109      21.66744427 
C      11.91616045      11.89386428      16.28700233 
C      10.78033745      14.19614006      12.77190558 
C      18.27862301      19.23130559      10.02973572 
C      15.37576501      14.96899972       8.75722453 
C      14.46874424      11.31054072      10.86441424 
C      20.04725039      11.07181506      15.60644607 
C      23.55195266      14.51715731      16.56256813 
C      21.05793748      19.86755515      18.55107874 
C      20.69648903      21.61300473      14.54120742 
C      23.28839362      16.77674443      11.41481744 
C      18.01910847      16.55604961      22.62930181 
C      22.01080801      14.52930556      20.31021492 
C      16.80019520      11.35378948      20.27863681 
C      19.89972891      13.58569522      11.90278460 
C      17.15273060       7.58673852      15.29339445 
H      11.85508658      11.35188857      15.33623704 
H      11.63178325      12.94017470      16.12832281 
H      11.25448879      11.43034785      17.02645405 
H      10.57792491      13.61618790      11.86425527 
H      10.62644186      15.26644928      12.58375640 
H      10.11735583      13.86754096      13.58134988 
H      12.38701530      12.46716519      21.87897642 
H      11.43971806      13.69637151      20.98332374 
H      12.11906839      14.08534356      22.60277223 
H       8.47693682      16.29921019      19.97524209 
H      10.06090043      17.11144547      19.73537907 
H       9.93528831      15.71446758      20.83480557 
H       7.94611898      19.60929010      14.45800531 
H       9.11795813      19.49179456      15.80923807 
H       7.43860712      18.87447146      16.01172556 
H      11.69980288      22.08282385      17.18098066 
H      12.97435370      21.06696606      17.93908021 
H      11.25016768      20.64392908      18.16091122 
H      13.10159218      20.61670461      21.15466160 
H      14.19658794      19.36409085      21.82120485 
H      12.42136958      19.26049251      22.11368159 
H      17.98116209      15.46079437      22.63349969 
H      17.97320316      16.93867112      23.65511647 
H      18.94158446      16.88573027      22.13731205 
H      16.18941770      23.54522842      22.79756136 
H      16.41453218      22.06205962      23.77941537 
H      15.06750087      22.16189929      22.60164840 
H      20.87245912      20.93027863      18.35931208 
H      21.19004024      19.34036013      17.59934615 
H      21.94523997      19.74417662      19.18216367 
H      20.62530734      22.70276035      14.44346342 
H      20.64636715      21.14396917      13.55151852 
H      21.64385497      21.34645099      15.02373711 
H      22.32167920      13.47827715      20.33048208 
H      22.20141090      14.98658278      21.28798026 
H      22.57017089      15.07145976      19.53995450 
H      24.60477527      14.44622349      16.26708993 
H      22.90819429      14.08752379      15.78943291 
H      23.39385729      13.97566790      17.50311835 
H      19.82895870      10.67145414      14.60935153 
H      19.25731946      10.76083659      16.30115975 
H      21.01761937      10.69692340      15.95290875 
H      17.09677822      10.33616009      20.55580237 
H      15.71081927      11.42186973      20.17952327 
H      17.14926862      12.06598013      21.03498978 
H      14.39971449      12.02867363      10.03876725 
H      13.69860992      11.53980393      11.60683437 
H      14.34096962      10.29083438      10.48387568 
H      16.86115253       6.93324812      14.46329938 
H      17.19927748       7.00674648      16.22214265 
H      18.12669494       8.03853243      15.08710567 
H      13.25256313      20.05681931      10.86028697 
H      12.26364742      20.49980482      12.28205988 
H      11.46821345      19.85695124      10.79992821 
H      15.95500383      24.03626773      12.87174769 
H      15.14598525      23.76524295      14.45209728 
H      14.17454784      23.85858031      12.95161465 
H      19.00070884      19.76900289       9.40578942 
H      17.26316384      19.58029762       9.80887922 
H      18.34193922      18.15275014       9.84530978 
H      19.93906303      13.23939372      10.86388410 
H      19.09240500      13.07995087      12.44376942 
H      20.85294782      13.39068683      12.40660094 
H      23.24246969      17.16592322      10.39120787 
H      22.52127578      16.00828415      11.55220240 
H      24.28479118      16.36530261      11.60968916 
H      16.97277694      24.61055163      15.77572193 
H      18.03491188      23.55439729      16.74912894 
H      17.45167015      25.11334512      17.42474793 
H      16.09382367      15.39615592       8.04760052 
H      14.37901653      14.93907405       8.30223241 
H      15.69136066      13.96003164       9.03919835 
