156
Properties=species:S:1:pos:R:3 i=100 optimized=T E=-1674.1594387505 pbc="F F F" jobid=36_24-Ag-38_9-000001-PBE
Au      16.11169683      15.81323850      14.38418251 
Au      16.01356213      18.47874694      15.79813269 
Ag      17.85346537      16.33348789      16.81159562 
Ag      16.71533729      13.98494519      18.03035283 
Au      14.89566879      15.99392994      17.16240660 
Ag      17.60765842      19.09271810      18.07200593 
Au      14.36924587      17.93498585      13.54581749 
Au      19.11741786      18.60533041      15.56315013 
Au      17.15719219      18.13545750      13.18087855 
Ag      19.20423220      16.18563542      14.15371358 
Au      15.07237998      13.42604218      15.56600168 
Au      12.96949541      17.96101466      16.26265304 
Ag      15.85826216      21.03067511      16.87994096 
Au      17.36327474      21.35171229      14.35627364 
Ag      14.83804763      18.79810956      18.38679277 
Ag      19.93019227      13.84805882      17.64213357 
Ag      17.87138419      13.69959394      15.21544726 
Au      12.97789897      15.49915588      15.02325425 
Au      13.88522169      14.97582305      11.75104203 
Ag      13.86482625      13.34809200      18.64051089 
Au      17.42011167      15.59183819      11.28129940 
Au      16.57749914      16.49851254      19.35134930 
Ag      12.15547246      15.67244844      17.75667833 
Ag      13.58292460      16.35375911      20.23883370 
Au      19.74011601      16.85818207      19.49095808 
Au      13.84008658      20.86443784      14.63156806 
Au      20.71210716      18.63404687      12.18905179 
Au      16.14684110      13.41446200      12.96157124 
Au      20.64351559      16.51771661      16.57412238 
Au       9.37842186      16.28937354      16.77185766 
Au      10.68093998      17.80009179      13.62459317 
Au      22.99245675      17.16729375      14.66898969 
Ag      16.98539477      19.56564321      21.38068901 
Ag      16.38918587      22.44111394      19.54378630 
Au      16.85739350      10.43152260      17.09285065 
Ag      16.24204846      10.43940076      13.56017111 
S      16.41777973      17.25035948      21.66202063 
S      20.08937001      14.56201573      19.94751417 
S      22.98955594      18.11414671      12.52074380 
S      23.08012992      16.29647221      16.85959023 
S      18.56809078      19.46119122      11.70473553 
S      19.67647218      15.28064239      11.88341359 
S      15.34196145      15.99005201      10.19773148 
S      13.72899694      11.80693183      16.77595115 
S      13.87955079      14.06540197      20.94480484 
S      20.20034832      12.93965810      15.43034887 
S      12.43446283      18.08769944      12.08432402 
S      11.98746628      20.16614687      15.91628680 
S      12.38972004      13.93977251      13.24305241 
S       9.93228306      15.03809690      18.68730837 
S      12.87811880      18.63910839      19.89881159 
S      19.32400989      21.04391078      15.61358177 
S      19.54820248      19.20533575      19.61876549 
S      15.40679882      21.79129973      13.11617251 
S      15.52412318      23.39903349      17.52220573 
S      17.37960868      21.91539352      21.65059948 
S      17.66950248      11.81555624      18.78965800 
S      16.26969579      11.55420409      11.40852387 
S       8.69138711      17.44828011      14.84384324 
S      16.08784736       8.95686306      15.44001039 
C      16.99384331      24.31272091      16.88575871 
C      16.15745547      22.49258255      22.90267718 
C      15.11735951      23.59216508      13.33810144 
C      12.26231298      19.82309366      11.51568843 
C       8.26656279      19.12202231      15.47042768 
C      12.04730405      21.17116865      17.44831112 
C      13.21245331      19.50642844      21.48598100 
C       9.64690534      16.21228398      20.07637532 
C      12.24278530      13.47581679      21.54325875 
C      11.99433664      11.92230916      16.18326306 
C      10.69990418      14.31929471      12.63907825 
C      18.24708644      18.91679940       9.98312655 
C      15.43958315      14.79659432       8.80395966 
C      14.54112035      11.31664686      10.81943716 
C      20.20544230      11.10732713      15.58075973 
C      23.51332379      14.52928068      16.59963155 
C      20.99907084      19.90644095      18.73809309 
C      20.72564271      21.52305932      14.53022137 
C      23.26924755      16.68082839      11.40540646 
C      17.78354787      16.49030246      22.62172103 
C      21.88428151      14.52959772      20.34390450 
C      16.77467323      11.32684474      20.31925652 
C      19.92794515      13.46317043      11.86990472 
C      17.44855898       7.74159408      15.19650541 
H      11.94166268      11.49855015      15.17464558 
H      11.64368929      12.96019119      16.16035352 
H      11.37497066      11.33451917      16.87068255 
H      10.53314340      13.74811442      11.71862775 
H      10.56967248      15.39210599      12.45090427 
H       9.99351770      13.99425862      13.41220951 
H      12.30526781      12.39532575      21.71729799 
H      11.45169740      13.67962978      20.81313541 
H      12.01571583      13.98330882      22.48782199 
H       8.57029378      16.38853613      20.17288440 
H      10.17748453      17.15783010      19.92561635 
H      10.02298024      15.73341757      20.98866200 
H       7.95304190      19.72646503      14.61157044 
H       9.12566357      19.59175560      15.95988948 
H       7.43265296      19.01755876      16.17313911 
H      11.76177162      22.19645725      17.18829963 
H      13.04763319      21.15997448      17.89574500 
H      11.33221106      20.73894039      18.15698449 
H      13.22692531      20.58526572      21.29012743 
H      14.17006288      19.20232490      21.92339488 
H      12.40114855      19.27351904      22.18539623 
H      17.61556428      15.40824413      22.65837239 
H      17.75444864      16.90679393      23.63509709 
H      18.75413136      16.69478148      22.15431796 
H      16.14639114      23.58841679      22.89761999 
H      16.48413164      22.13795311      23.88692911 
H      15.15084942      22.11725906      22.69806072 
H      20.83496078      20.98561171      18.64113192 
H      21.10233394      19.45829070      17.74341206 
H      21.89637853      19.71529193      19.33635162 
H      20.69399974      22.60962408      14.39075691 
H      20.67819040      21.01222202      13.56091010 
H      21.64977149      21.24077382      15.04845788 
H      22.20481358      13.48154747      20.37146725 
H      22.03302651      14.98414310      21.33012115 
H      22.46619560      15.08076633      19.59721264 
H      24.55782009      14.47875708      16.27256571 
H      22.85600366      14.05773035      15.86234192 
H      23.40220775      14.01460924      17.56181122 
H      20.09736667      10.68715137      14.57338547 
H      19.38169794      10.75052846      16.21280903 
H      21.16497053      10.79411614      16.00751003 
H      17.07800524      10.30972485      20.58946397 
H      15.68931636      11.37603365      20.18180677 
H      17.07287021      12.02715631      21.10788179 
H      14.32022786      12.07398123      10.05808738 
H      13.81921427      11.41494498      11.63526935 
H      14.47273533      10.31560877      10.37786352 
H      17.18721724       7.11327247      14.33714203 
H      17.52002832       7.11953834      16.09583625 
H      18.40747622       8.23449613      15.01367400 
H      13.12533692      20.04784174      10.87858472 
H      12.24125376      20.52016067      12.36211814 
H      11.33631019      19.89934377      10.93459658 
H      15.93826987      24.13132493      12.85205564 
H      15.06540563      23.85229920      14.40050081 
H      14.16895921      23.84148310      12.84815230 
H      18.94520482      19.44338515       9.32284367 
H      17.21559730      19.19438347       9.73784067 
H      18.36785710      17.83112595       9.88300077 
H      19.89491928      13.11461718      10.83213385 
H      19.16168159      12.95299864      12.46355436 
H      20.91292838      13.26418125      12.30684485 
H      23.24971103      17.05594369      10.37575126 
H      22.49315529      15.91995117      11.53668995 
H      24.25836477      16.26704898      11.62990437 
H      16.77089264      24.65938711      15.86983033 
H      17.88358135      23.67652993      16.85347321 
H      17.17752896      25.17772552      17.53238563 
H      16.16491806      15.18546836       8.07972314 
H      14.44965728      14.73330029       8.33809365 
H      15.76071825      13.80913501       9.15198103 
