156
Properties=species:S:1:pos:R:3 i=119 optimized=T E=-1742.1299607036 pbc="F F F" jobid=36_24-Ag-88_9-000004-PBE
Ag      16.07293550      15.79744971      14.37048722 
Ag      15.99781528      18.46564979      15.75331163 
Au      17.82562111      16.31464760      16.71563562 
Ag      16.74946804      14.03675655      17.97833751 
Ag      14.92564712      16.06455272      17.10728282 
Ag      17.67825936      19.06762618      18.04267065 
Ag      14.31742872      17.83459973      13.51093399 
Ag      19.07159544      18.55078145      15.44299613 
Ag      17.11053591      18.19361416      13.17076323 
Ag      19.09383554      16.07654337      14.14941749 
Ag      15.03050960      13.40474548      15.60373477 
Au      12.98860303      18.00975347      16.25603928 
Ag      16.02202071      21.04468378      16.90167860 
Au      17.39743174      21.21490695      14.30454887 
Ag      14.90507408      18.89211417      18.38741583 
Ag      19.83088266      13.81901980      17.78893229 
Ag      17.78100240      13.61663021      15.19411241 
Ag      12.99957858      15.56024816      14.99759255 
Au      13.97475702      15.07339629      11.84464019 
Ag      13.88833912      13.48022000      18.67729107 
Ag      17.36449438      15.66702586      11.56460763 
Ag      16.68177388      16.57773687      19.28617559 
Ag      12.20846232      15.77342783      17.76595491 
Ag      13.70569258      16.42954640      20.24069762 
Ag      19.66229355      16.77963173      19.36617224 
Ag      14.05194969      20.57186236      14.68112731 
Ag      20.69712792      18.44922278      12.39308832 
Ag      16.07128069      13.34824073      12.96238863 
Ag      20.60342153      16.40323385      16.57182175 
Ag       9.42738494      16.07711583      16.89795203 
Ag      10.72908729      17.65532181      13.94743981 
Ag      22.90790952      17.24579485      14.90092010 
Ag      17.00894444      19.74755563      21.20778477 
Ag      16.43461473      22.64387780      19.39115957 
Ag      16.47451899      10.58183130      16.59128141 
Ag      16.15613774      10.37433791      13.13883682 
S      16.39517456      17.45401629      21.57586208 
S      19.99901996      14.49782608      20.09877078 
S      23.06474192      18.11982064      12.68968475 
S      23.01061228      16.37614034      17.13668871 
S      18.62132612      19.37038150      11.60987157 
S      19.74241484      15.31817337      11.88466477 
S      15.35632809      16.16392298      10.27583142 
S      13.56538344      11.88707162      16.89339310 
S      14.14910433      14.17538393      20.98062021 
S      20.13578450      12.94623509      15.55667629 
S      12.27167668      18.10271211      12.14823182 
S      11.95178856      20.19142664      15.85114648 
S      12.47948159      13.89494774      13.23637142 
S      10.16254416      14.84442294      18.82565637 
S      12.89908033      18.66789597      19.83339423 
S      19.39873822      21.01198519      15.53320127 
S      19.64442644      19.18555687      19.54599079 
S      15.46945063      21.63336949      13.01144905 
S      15.58044984      23.45593099      17.29954182 
S      17.42354743      22.10020276      21.48785834 
S      17.43712503      11.71653870      18.47482288 
S      16.28071959      11.68057785      11.13025473 
S       8.59373855      17.28031984      15.01966437 
S      15.84062100       8.90774526      14.98634264 
C      17.04147712      24.34658379      16.61245748 
C      16.20815249      22.66903654      22.75081456 
C      15.08280151      23.40868990      13.29792503 
C      11.98138980      19.87679458      11.75646148 
C       8.20066685      18.93715941      15.72220061 
C      12.00268507      21.20808014      17.37804668 
C      13.16723980      19.57094272      21.41557905 
C       9.79634485      16.00438344      20.21162218 
C      12.57184765      13.55210330      21.69636071 
C      11.82215430      12.00968621      16.32832094 
C      10.80968999      14.24989664      12.55016048 
C      18.45411548      18.69933737       9.90515503 
C      15.53275003      14.97073281       8.88704609 
C      14.58147205      11.46825389      10.44576739 
C      20.20918441      11.11590361      15.74528172 
C      23.55004712      14.63398213      16.86574636 
C      21.10383814      19.83673877      18.63903263 
C      20.72820819      21.54306067      14.37954852 
C      23.40727135      16.62565559      11.66861859 
C      17.69480140      16.71732339      22.64669782 
C      21.79936185      14.52119561      20.48337585 
C      16.52842624      11.10785015      19.95219747 
C      20.00507916      13.49920550      11.87304022 
C      17.25949534       7.73371941      14.91993403 
H      11.72239175      11.42589922      15.40664080 
H      11.54191579      13.05061534      16.12972999 
H      11.17448619      11.59436472      17.10807062 
H      10.68390832      13.67019146      11.62886839 
H      10.67909346      15.31760044      12.34018230 
H      10.07126557      13.92675454      13.29342830 
H      12.68953578      12.48313682      21.90895532 
H      11.73607740      13.69232810      21.00080256 
H      12.37443908      14.08932140      22.63088741 
H       8.71043481      16.06703209      20.34093458 
H      10.21189435      17.00079158      20.03037861 
H      10.24707059      15.59449450      21.12358624 
H       7.87038976      19.58166491      14.89943905 
H       9.07580102      19.38649734      16.20342528 
H       7.38604498      18.82861557      16.44622348 
H      11.61602789      22.20118387      17.12118420 
H      13.02523450      21.29747614      17.76204820 
H      11.37253697      20.73649904      18.13940301 
H      13.16070377      20.64598856      21.20073760 
H      14.11888596      19.29392880      21.88188732 
H      12.34123353      19.32970335      22.09457979 
H      17.49316841      15.64385092      22.73328627 
H      17.63495098      17.18722121      23.63458008 
H      18.69326338      16.86611596      22.22073671 
H      16.20723019      23.76485346      22.76361852 
H      16.53328394      22.29580433      23.72867879 
H      15.19799192      22.30589064      22.54214460 
H      20.98970552      20.92231457      18.54567583 
H      21.18005104      19.39379560      17.63942805 
H      22.00396050      19.60248854      19.21776294 
H      20.69169791      22.63422682      14.28664005 
H      20.61386544      21.08058073      13.39252296 
H      21.68636240      21.24179862      14.81928736 
H      22.16658593      13.48884900      20.50220991 
H      21.93334914      14.97294926      21.47317462 
H      22.35858178      15.10320015      19.74179556 
H      24.59310767      14.63663469      16.53141209 
H      22.91989732      14.12189722      16.13142778 
H      23.47732105      14.10515490      17.82377701 
H      20.00555093      10.66215595      14.76828869 
H      19.47781467      10.75790112      16.47810011 
H      21.21977226      10.84370084      16.07093838 
H      16.81127749      10.06324922      20.12303711 
H      15.44442680      11.18338434      19.81180093 
H      16.82595663      11.71931772      20.81112145 
H      14.46482595      12.15317168       9.59774420 
H      13.81403618      11.69469957      11.19238112 
H      14.46899961      10.43606975      10.09663026 
H      17.11709962       7.06543296      14.06314204 
H      17.25739289       7.14387058      15.84363865 
H      18.21758734       8.25186611      14.82299820 
H      12.80992904      20.22906261      11.13196402 
H      11.92469140      20.49101397      12.66250679 
H      11.04018805      19.95458109      11.20028561 
H      15.87317059      24.01932328      12.84732872 
H      14.99604074      23.62876429      14.36803040 
H      14.12820788      23.62110057      12.80182615 
H      19.14581806      19.24623084       9.25427137 
H      17.42364718      18.86487482       9.57193199 
H      18.68114835      17.62776551       9.86654017 
H      19.85941262      13.13133685      10.85169797 
H      19.30901315      12.99612203      12.55388650 
H      21.03062690      13.29981870      12.20302651 
H      23.43082391      16.93484794      10.61733351 
H      22.63165609      15.86428498      11.80356144 
H      24.38625239      16.22331085      11.95018499 
H      16.82063053      24.61772617      15.57338371 
H      17.94100743      23.72361002      16.63213819 
H      17.20485534      25.25709485      17.19922358 
H      16.24755966      15.40023854       8.17489237 
H      14.55914628      14.84886148       8.39943045 
H      15.90527771      14.00251193       9.23995272 
