156
Properties=species:S:1:pos:R:3 i=105 optimized=T E=-1647.707467361 pbc="F F F" jobid=36_24-Ag-19_4-000007-PBE
Au      16.09704485      15.83386900      14.32786675 
Au      15.97621338      18.50499145      15.72883107 
Au      17.89614788      16.35683619      16.74816160 
Ag      16.83568185      13.96735302      18.00885822 
Au      14.99840901      15.99905332      17.16850319 
Au      17.67195847      19.14822986      17.91241587 
Au      14.29686771      17.91553308      13.53470966 
Au      19.26893026      18.68070800      15.43990664 
Au      17.08218174      18.18135549      13.10968550 
Au      19.21557796      16.22056788      14.15222432 
Ag      15.12719730      13.40110883      15.60714937 
Au      12.99720217      17.92698259      16.32363274 
Au      15.85777634      21.02437150      16.86965862 
Ag      17.33431320      21.13245750      14.28904435 
Ag      14.91086604      18.82362100      18.45419777 
Au      20.10524111      13.76236798      17.74791854 
Au      17.88470502      13.76449902      15.11721252 
Au      13.09034078      15.44071923      15.03431511 
Au      13.88395739      14.96115650      11.73139868 
Au      13.87358165      13.22130053      18.80983135 
Au      17.34900672      15.66038706      11.21512118 
Au      16.77619223      16.54279790      19.30751697 
Au      12.29783627      15.56650965      17.74714436 
Ag      13.61166814      16.46102052      20.23380825 
Au      19.83265414      16.88520469      19.49731881 
Au      13.83670503      20.86006635      14.58667168 
Ag      20.62081108      18.51667103      12.52387432 
Au      16.13838615      13.41688246      12.94341550 
Au      20.67460705      16.47947869      16.57769347 
Au       9.37422633      16.35406182      16.66089544 
Au      10.57076348      17.84437597      13.53227302 
Au      23.08729767      17.33292847      14.74999964 
Au      16.82180197      19.42561768      21.60194726 
Au      16.35553224      22.50103749      19.65046916 
Ag      16.51040751      10.35240501      16.95645261 
Au      16.01122540      10.09043891      13.47393851 
S      16.46010982      17.11251875      21.66715341 
S      20.22844568      14.59138514      19.95341137 
S      23.04502038      18.26521848      12.60508621 
S      23.09871304      16.43200871      16.92964163 
S      18.54814302      19.53962386      11.76014995 
S      19.60772648      15.44118438      11.87186701 
S      15.26884347      16.01731065      10.14040601 
S      13.79009737      11.79599503      16.93631393 
S      14.01639185      14.18945076      20.96153335 
S      20.09880001      12.86604606      15.57062359 
S      12.37344691      18.06908308      12.04703315 
S      12.00293717      20.09154218      15.86781426 
S      12.46679565      13.89043683      13.27655781 
S      10.04289603      15.10169200      18.54134650 
S      12.87020855      18.71852516      19.85469750 
S      19.45652404      21.08337132      15.47821156 
S      19.52278897      19.22332999      19.49613614 
S      15.35570715      21.80530225      13.04608656 
S      15.62985647      23.34765866      17.57664256 
S      17.18193150      21.74889858      21.71148963 
S      17.52433331      11.67942665      18.67825159 
S      16.13020456      11.43148279      11.54714977 
S       8.59315999      17.52107583      14.77694680 
S      15.82155494       8.69557737      15.34105196 
C      17.13129348      24.18469819      16.91901573 
C      15.97741624      22.35968726      22.95810878 
C      15.14652405      23.60734621      13.34206851 
C      12.25940547      19.79856700      11.44719154 
C       8.21954535      19.19750257      15.43131210 
C      11.99917066      21.13189051      17.37707034 
C      13.14488383      19.64504791      21.41814032 
C       9.76611612      16.25667952      19.94525896 
C      12.45093318      13.61875082      21.73827923 
C      12.05403732      11.79846079      16.33662798 
C      10.74345047      14.26950294      12.77640457 
C      18.31592280      19.06993572      10.00103765 
C      15.35464641      14.84921242       8.72449630 
C      14.44210628      11.30192838      10.83155237 
C      19.96025504      11.04536739      15.74994035 
C      23.59687016      14.68349810      16.65251628 
C      20.99044333      19.90704013      18.63466066 
C      20.77232788      21.59592072      14.30269005 
C      23.36799643      16.83942128      11.48907012 
C      17.87290054      16.42337463      22.61413879 
C      22.01849265      14.58546136      20.36343767 
C      16.65758812      11.21218211      20.22873563 
C      19.95539084      13.64027273      11.90654643 
C      17.22443599       7.51398091      15.19393776 
H      12.03727410      11.25841052      15.38324474 
H      11.69848013      12.82371168      16.18684365 
H      11.42793873      11.28262246      17.07249955 
H      10.52556606      13.70461800      11.86277040 
H      10.60024852      15.34377194      12.60405009 
H      10.08457574      13.93752772      13.58758239 
H      12.53891207      12.54921940      21.96138627 
H      11.59444271      13.78337694      21.07645711 
H      12.31491550      14.17778744      22.67140480 
H       8.68523763      16.37789627      20.07775474 
H      10.24379888      17.22569445      19.76965929 
H      10.19973580      15.79925458      20.84263406 
H       7.88235084      19.81221763      14.58888923 
H       9.10536014      19.64907588      15.88907814 
H       7.41231274      19.10151290      16.16555527 
H      11.67024991      22.13577534      17.08543414 
H      12.99499648      21.17675904      17.83143375 
H      11.29509625      20.68864703      18.08963410 
H      13.02718281      20.71361793      21.20044900 
H      14.15024533      19.46871637      21.82232509 
H      12.38987351      19.33415570      22.14909025 
H      17.79764433      15.33099541      22.56718922 
H      17.78342409      16.76220481      23.65226991 
H      18.82804284      16.74648507      22.18417640 
H      16.03670216      23.45392354      22.97265209 
H      16.27552560      21.95961866      23.93392164 
H      14.95718254      22.04466029      22.72228046 
H      20.78807405      20.96294136      18.42311447 
H      21.18115767      19.37645147      17.69544291 
H      21.84858452      19.81203159      19.30939286 
H      20.80749475      22.69223607      14.31394199 
H      20.56927966      21.24641919      13.28459132 
H      21.73147551      21.19400085      14.64838280 
H      22.35962920      13.54421795      20.38436471 
H      22.13546370      15.03305734      21.35739024 
H      22.59398432      15.16126984      19.63081794 
H      24.68102969      14.66225566      16.49320053 
H      23.07872183      14.25030529      15.79258858 
H      23.33748123      14.10949214      17.55031788 
H      19.62521658      10.64094904      14.78744304 
H      19.24897673      10.77083151      16.53656797 
H      20.95581364      10.65653610      15.99426506 
H      16.89377300      10.16760785      20.45970481 
H      15.57291622      11.34096047      20.13216036 
H      17.02558435      11.85930369      21.03300506 
H      14.35546005      12.04432186      10.02948157 
H      13.67446899      11.49576835      11.58634217 
H      14.32503836      10.29261304      10.42086374 
H      17.04441697       6.86217919      14.33174479 
H      17.24497328       6.91175982      16.10973792 
H      18.18104459       8.02968338      15.07361669 
H      13.14076998      19.98909134      10.82424561 
H      12.24610242      20.50910164      12.28229167 
H      11.34689182      19.89098458      10.84780118 
H      15.97615139      24.12822152      12.84998302 
H      15.14307892      23.83808713      14.41211103 
H      14.19741457      23.92802846      12.89725896 
H      19.08561374      19.58151295       9.41144005 
H      17.32142193      19.40347310       9.68397086 
H      18.39730822      17.98438543       9.86888559 
H      20.02710943      13.29107985      10.87029263 
H      19.16134563      13.10174953      12.43584543 
H      20.90964679      13.49278484      12.42441201 
H      23.28084661      17.20510312      10.45916916 
H      22.64782827      16.03128917      11.64950181 
H      24.38717588      16.47815125      11.66382727 
H      16.93179837      24.46062461      15.87684473 
H      18.00492880      23.52713514      16.95866333 
H      17.30768003      25.08811717      17.51340970 
H      16.06804910      15.25479708       7.99760009 
H      14.35791917      14.79237168       8.27220652 
H      15.68117084      13.85550775       9.04556581 
