156
Properties=species:S:1:pos:R:3 i=108 optimized=T E=-1674.1722680094 pbc="F F F" jobid=36_24-Ag-38_9-000005-PBE
Ag      16.04403180      15.73204911      14.36212045 
Ag      16.00984589      18.43973969      15.76796147 
Au      17.86821785      16.35687786      16.68864590 
Au      16.81872315      14.06698281      18.03292042 
Au      14.99144637      16.05159775      17.25499976 
Au      17.71762650      19.12350156      17.94581289 
Au      14.30943872      17.86805539      13.54966477 
Ag      19.08686946      18.60756398      15.34554255 
Au      17.04664000      18.09661115      13.14311995 
Ag      19.13334042      16.07658644      14.14785956 
Au      15.11379246      13.29948204      15.65516110 
Au      13.17433866      18.03172769      16.41355705 
Ag      15.93788306      21.01376598      16.82716239 
Au      17.50029587      21.33499587      14.35677205 
Ag      15.04091611      18.89759095      18.61150334 
Ag      19.86646057      13.91340404      17.78143398 
Au      17.84140669      13.58516644      15.14849816 
Ag      13.09473608      15.51926194      15.06543752 
Au      13.89626180      14.91323422      11.89166269 
Ag      13.92067016      13.58290146      18.79739102 
Ag      17.33719683      15.51722240      11.55493839 
Ag      16.89282830      16.57478439      19.36967907 
Au      12.23581580      15.79056642      17.77137988 
Au      13.34606025      16.57402765      20.43666453 
Au      19.90704288      16.93465970      19.54212368 
Au      13.94987292      20.81222515      14.58423860 
Au      20.58452175      18.69769366      12.26585188 
Au      16.06693739      13.20710643      13.01860496 
Ag      20.61970077      16.51918359      16.61056494 
Au       9.32056732      16.30409461      16.58985177 
Au      10.51256986      17.84701556      13.53965740 
Au      22.90395034      17.34243009      14.82175209 
Au      16.81741033      19.25058377      21.55975416 
Ag      16.30007333      22.22185735      19.50012598 
Ag      16.56931260      10.65057003      16.67966921 
Au      16.14755778      10.14810364      13.18052803 
S      16.47960793      16.94735383      21.79077180 
S      20.21232823      14.65179698      20.06546187 
S      22.87313951      18.31870657      12.68489107 
S      23.10198964      16.40592245      16.96817551 
S      18.43793459      19.36855804      11.59846635 
S      19.72966586      15.28139630      11.87790824 
S      15.28902780      15.95388104      10.29473269 
S      13.70871085      11.90157888      17.04832245 
S      13.81424540      14.36393462      21.10736341 
S      20.14573307      12.98213923      15.55631953 
S      12.34452700      18.05291025      12.09624724 
S      12.07378969      20.12595809      15.83949558 
S      12.40553225      13.83691773      13.36328454 
S      10.02199415      15.02205267      18.43808253 
S      12.90538057      18.82323205      19.91038530 
S      19.49929180      21.08185110      15.55359057 
S      19.69001530      19.27821600      19.42180409 
S      15.54198546      21.74427080      13.10448947 
S      15.47220776      23.35077938      17.54146062 
S      17.27885648      21.55255202      21.57728914 
S      17.51553817      11.80401493      18.59546895 
S      16.10888106      11.50918786      11.25149615 
S       8.52146002      17.54705697      14.76400525 
S      16.05773831       8.85492130      15.12388420 
C      16.94818373      24.31615694      17.00249371 
C      16.18503359      22.25804657      22.87756754 
C      15.23810051      23.54399332      13.32011976 
C      12.26050576      19.78856829      11.50556163 
C       8.20701681      19.20929939      15.48502298 
C      12.06177498      21.21304062      17.31657848 
C      13.14477100      19.73654849      21.48655446 
C       9.58030177      16.08978019      19.87014678 
C      12.20952389      13.64446807      21.64412724 
C      11.98607181      11.92263045      16.42041853 
C      10.71914998      14.23770938      12.75512074 
C      18.24706530      18.62218726       9.93138005 
C      15.45112217      14.74036023       8.92341709 
C      14.37067107      11.35314398      10.66999501 
C      20.19088731      11.15284536      15.73320458 
C      23.57347458      14.66184471      16.61360006 
C      21.14863906      19.85036895      18.46795680 
C      20.82546361      21.64485792      14.41339673 
C      23.25326958      16.90442194      11.57414321 
C      17.95234992      16.38989188      22.74005400 
C      22.02268605      14.56794554      20.37302545 
C      16.57140473      11.26934248      20.07620482 
C      20.03147856      13.46893235      11.90142514 
C      17.55110842       7.78238254      15.08100274 
H      11.96349088      11.42273365      15.44628825 
H      11.62122445      12.95026425      16.31589344 
H      11.36583931      11.37707802      17.14101281 
H      10.54605016      13.69906300      11.81690500 
H      10.58804778      15.31587097      12.59977721 
H      10.00808722      13.89363125      13.51607837 
H      12.38428540      12.58884978      21.88442662 
H      11.45175402      13.71386062      20.85643647 
H      11.86745569      14.17037100      22.54263160 
H       8.49367401      16.04463063      20.00434424 
H       9.90288767      17.12275484      19.71227878 
H      10.08510827      15.68893822      20.75694726 
H       7.88414280      19.86593923      14.66903379 
H       9.10846221      19.61583182      15.95365166 
H       7.40164785      19.11186280      16.22119529 
H      11.75835410      22.21630193      16.99778929 
H      13.04893584      21.25326276      17.79002743 
H      11.33654963      20.79950135      18.02635827 
H      13.07276468      20.80686000      21.25621325 
H      14.12784253      19.52048326      21.92465662 
H      12.34847405      19.45626198      22.18475516 
H      17.95349016      15.29381038      22.72750243 
H      17.86113044      16.75125508      23.77004145 
H      18.88188368      16.75532428      22.28964817 
H      16.29280694      23.34856585      22.85004331 
H      16.51947434      21.88204114      23.85105684 
H      15.13689821      21.98832970      22.71998104 
H      21.00628688      20.91719000      18.26164643 
H      21.25390207      19.30834417      17.52110902 
H      22.03925219      19.70103410      19.08830749 
H      20.75406136      22.73131645      14.29333917 
H      20.75535742      21.14800395      13.43796101 
H      21.78321156      21.38689852      14.88166221 
H      22.31118698      13.51059705      20.39210461 
H      22.23323514      15.02312150      21.34762514 
H      22.58202960      15.09637071      19.59348838 
H      24.59984463      14.64308214      16.23176017 
H      22.89215932      14.19523169      15.89537414 
H      23.52561191      14.11037145      17.56052309 
H      19.93307567      10.70556237      14.76619795 
H      19.49201694      10.80396767      16.50151558 
H      21.21420043      10.87146941      16.00973590 
H      16.84906167      10.23171654      20.29518928 
H      15.49120169      11.33781957      19.90406064 
H      16.85068870      11.91449473      20.91634044 
H      14.18730960      12.14349107       9.93258761 
H      13.66351092      11.46344902      11.49718881 
H      14.25805153      10.36923783      10.20079831 
H      17.43491319       7.05525652      14.26941732 
H      17.60645816       7.25427622      16.04010732 
H      18.46586779       8.36188055      14.92856333 
H      13.15652703      19.97268905      10.90189262 
H      12.23124333      20.49618049      12.34243232 
H      11.36324089      19.89399018      10.88533307 
H      16.05958986      24.08657143      12.83874522 
H      15.17835776      23.80591648      14.38175746 
H      14.29197778      23.78693591      12.82276578 
H      18.87378914      19.19232112       9.23602346 
H      17.19238928      18.70963269       9.64719329 
H      18.54318717      17.56712383       9.92826478 
H      20.02574881      13.10416727      10.86825543 
H      19.26276957      12.94911421      12.48390905 
H      21.01056591      13.28568200      12.35738522 
H      23.24548972      17.28186031      10.54519462 
H      22.50824835      16.10884471      11.68349279 
H      24.25405251      16.53699595      11.82583265 
H      16.71429454      24.78381543      16.03871027 
H      17.82892114      23.67747041      16.88154841 
H      17.15272748      25.09742080      17.74258252 
H      16.16158398      15.15302441       8.19702839 
H      14.47376119      14.61238956       8.44461137 
H      15.82327174      13.77515728       9.28437531 
