  762
  i =      255, E =     -7133.0000588228
  O        12.5491965610       29.1252598464       12.8329610172
  C        13.3205005521       28.3729219008       11.9893950584
  O        13.8054083156       28.8862862000       10.9962814919
  C        13.5701132175       26.9479841148       12.3713777641
  C        13.0011214327       26.3187691759       13.4895940124
  C        13.3782766226       25.0275129684       13.8537345647
  C        14.4811021945       26.2274252195       11.5813434084
  C        14.8627352628       24.9380424826       11.9358921980
  C        14.3365595438       24.3387240221       13.0963176540
  S        14.9267252452       22.7124624656       13.5203877286
  O         7.5717836876       25.1720369225       19.5999772822
  C         8.0150043402       25.1017477490       18.3007576363
  O         7.7243843871       25.9930420147       17.5251938024
  C         8.8875490948       23.9461570985       17.9206851592
  C         9.4079106266       23.0151040445       18.8324276274
  C        10.3221542623       22.0429196015       18.4228034977
  C         9.2583454844       23.8388346126       16.5672340052
  C        10.1630842310       22.8689677959       16.1476183416
  C        10.7331229911       21.9863173847       17.0845516382
  S        11.8671023656       20.7213591197       16.5332187089
 Au        13.4579529534       21.8523948351       15.1729703251
  O        31.7860417798       19.0227865612       25.1093650637
  C        31.2027689136       19.5510413696       26.0372760185
  O        31.8566578721       20.4883020017       26.8078161058
  C        29.7665994577       19.2727800488       26.3516068658
  C        29.1739820920       18.1933519376       25.6746776119
  C        27.8072583127       17.9599220127       25.7605093327
  C        28.9600415165       20.0702324057       27.1802360303
  C        27.5834368424       19.8481722599       27.2675038121
  C        26.9909640761       18.8124415356       26.5205842717
  S        25.2131748056       18.6754741165       26.5693951651
 Au        24.6945886955       16.6208917112       25.5468903098
  O        21.2450530689       10.9799284130       29.6194307074
  C        21.5885770800       10.6259339308       28.3308606910
  O        21.1657043703        9.5855204288       27.8617307177
  C        22.4324270829       11.5836211508       27.5498494711
  C        22.8142846788       12.8610594788       27.9924478408
  C        23.4457079835       13.7610296999       27.1333781277
  C        22.7787496915       11.1968742454       26.2429446256
  C        23.4107957271       12.0838464124       25.3795923667
  C        23.7051838673       13.3934358585       25.8048863292
  S        24.3617535275       14.5029330772       24.5811235197
  O        21.8366838935       21.7551815106       32.5273493819
  C        22.4326610196       21.7285426377       31.2880557449
  O        23.0257672306       22.7192050955       30.8963192097
  C        22.2469816276       20.4969929000       30.4635847639
  C        21.7617313356       19.2669832219       30.9461891444
  C        21.5258488022       18.2013266770       30.0749361513
  C        22.5326851154       20.6117860456       29.0948106107
  C        22.2769885239       19.5628944939       28.2201957964
  C        21.7497149317       18.3542289592       28.6934592620
  S        21.4235319361       16.9809473935       27.5955826728
  O        13.9465670053       10.9831352657       25.9093130565
  C        13.8811623153       11.6187742074       26.9461423516
  O        13.1430918092       11.1401017986       27.9918643976
  C        14.5918723582       12.9251509460       27.1199061004
  C        15.5470470776       13.2464054666       26.1402303932
  C        16.2363190874       14.4497993790       26.1787738048
  C        14.3421469549       13.8432333587       28.1493115510
  C        15.0301111396       15.0600283466       28.1937773452
  C        15.9731663811       15.3713984249       27.2010366828
  S        16.6785263544       17.0130602683       27.2541762099
 Au        19.0547006021       16.9383781651       27.3459407637
  O        14.3322177440       16.5619933804       32.0817756322
  C        14.1267626525       17.7027054260       31.3483847631
  O        12.9887927331       18.1167629714       31.1985262796
  C        15.3114634776       18.3634810165       30.7317142315
  C        16.6527674575       18.0190534398       30.9730556955
  C        17.6885347976       18.6643202048       30.2962648448
  C        15.0380079003       19.3934807737       29.8159111878
  C        16.0610477458       20.0346625668       29.1355758212
  C        17.4010853143       19.6715927642       29.3557059594
  S        18.7601729279       20.4564983968       28.5211975086
  O        10.5497797348       23.4705087812       29.5598201603
  C        11.0328984702       24.4045259802       28.6778247159
  O        10.2357448024       25.1019253810       28.0702883379
  C        12.5035691482       24.4705926122       28.4556057328
  C        13.4595184813       23.7473169601       29.1902218550
  C        14.8067684704       23.7807191434       28.8340883082
  C        12.9450180519       25.2760664227       27.3904475921
  C        14.2828939749       25.3070044402       27.0241225211
  C        15.2240808235       24.5302424976       27.7196749436
  S        16.9279049329       24.6141261536       27.2219992341
 Au        17.8083639157       22.4784785826       27.7328196115
  O         6.9798941627       14.6204397328       15.8175951993
  C         8.2368064125       14.3869662956       15.3186178533
  O         8.3848933193       13.8179966302       14.2545607619
  C         9.3894940276       14.9105677006       16.1144133704
  C         9.2730046734       15.9372106213       17.0647109081
  C        10.3978757054       16.4129947758       17.7401178673
  C        10.6595461619       14.3740641637       15.8427880424
  C        11.7821673277       14.8271577489       16.5278227359
  C        11.6592384296       15.8493947785       17.4897281481
  S        13.0986403541       16.2603411015       18.4557607693
  O         8.4584039149       17.8223008970       26.7384235901
  C         8.0168564714       17.8532580044       25.4416771574
  O         6.9015855840       17.4502950346       25.1723382131
  C         8.9654333370       18.3846707795       24.4134357680
  C        10.3291253609       18.5893461895       24.6634731384
  C        11.1785653274       19.0470448853       23.6596855708
  C         8.4623046768       18.6591611987       23.1290538059
  C         9.3045461060       19.1198834192       22.1196513592
  C        10.6761309555       19.3048526488       22.3789426260
  S        11.7259298089       19.9390963371       21.0894519113
 Au        12.5009461992       18.1076829844       19.8090441806
  O        12.8419037276       31.2586905715       16.2602323342
  C        13.6298504300       30.6472424094       16.9531119132
  O        14.7767140940       31.2672639765       17.3811058139
  C        13.4423195361       29.2087228090       17.3418115852
  C        12.2093729484       28.5986256732       17.0493185088
  C        12.0096443793       27.2393796877       17.2969872021
  C        14.4500807005       28.4331510980       17.9343291877
  C        14.2641623313       27.0742036404       18.1795931962
  C        13.0532967571       26.4608333752       17.8379228179
  S        12.7837872408       24.6975182413       17.9570041648
  O        11.7951370258       15.7411704487       28.5900207616
  C        11.3805016298       16.8697494540       28.7955513121
  O        10.3950123843       17.0741461212       29.7095357547
  C        11.9048905471       18.0564013027       28.0411565089
  C        12.9282502090       17.8030645818       27.1112231284
  C        13.5425759369       18.8422944912       26.4213915100
  C        11.4608582048       19.3806408159       28.2079096529
  C        12.0691285471       20.4297388064       27.5122009342
  C        13.1436762786       20.1692295411       26.6413928190
  S        14.0669208846       21.5484820764       25.9845106133
  O         8.7599363572       28.2119402156       25.8617181821
  C         8.7622418407       27.9703013901       24.5142817256
  O         8.3194450139       28.8184295138       23.7607799587
  C         9.3782967888       26.6958715094       24.0278347236
  C         9.9118363922       25.7043774569       24.8658620897
  C        10.6033885572       24.6168477872       24.3312283687
  C         9.4899788440       26.5388354393       22.6353735568
  C        10.1789193613       25.4581463680       22.0967918168
  C        10.7718296835       24.5034689107       22.9433291966
  S        11.6284713841       23.1066674956       22.2356370232
 Au        12.6217024566       23.9792211770       20.2247759711
 Au        13.0738580446       22.2394820674       23.9380996355
  O        16.2641172548       10.2430526615       29.4827588365
  C        16.7287701287        9.9739240353       28.2131427039
  O        16.3374042095        8.9835726570       27.6296558160
  C        17.6631170685       10.9697897512       27.6004240117
  C        18.1012114617       12.1442965407       28.2325620857
  C        18.8961122252       13.0666406552       27.5558727496
  C        18.0718863189       10.7225903449       26.2791566738
  C        18.8681885572       11.6349483322       25.5956505669
  C        19.2721606566       12.8241228888       26.2237936501
  S        20.3746899728       13.9978080184       25.4675244500
 Au        20.8462540362       13.2854520260       23.2644452878
  O        28.0785123866       11.5049977628       22.1290231332
  C        27.1485202702       10.7431301136       22.3709782792
  O        27.4077818426        9.5763258789       23.0200559239
  C        25.7363084805       11.0574705377       22.0222894705
  C        25.4551825325       12.3779340797       21.6324180377
  C        24.1555224834       12.7762662800       21.3483483465
  C        24.6802093063       10.1313842890       22.0878977784
  C        23.3713066419       10.5284407964       21.8122696132
  C        23.0968753030       11.8628245546       21.4622341641
  S        21.3980594468       12.3418875644       21.1902657718
  O        22.5768963206       32.1530235524       14.1078913535
  C        23.4696493650       31.6783813247       14.7844776470
  O        24.7334042091       31.5706449877       14.2497736010
  C        23.2625993930       31.1177748388       16.1520808477
  C        22.0174895613       31.3265102214       16.7705813544
  C        21.6994974499       30.6677863405       17.9553937539
  C        24.2064703444       30.3023244943       16.7933256539
  C        23.8889144792       29.6320728634       17.9720115939
  C        22.6124881624       29.7700096391       18.5322922616
  S        22.2315749162       28.7731089103       19.9611436494
 Au        19.8833944072       28.5483176042       20.0013563321
  O        17.3026845123       32.3048883809       25.9839271264
  C        16.3273583545       31.6732643430       25.2712613669
  O        15.2277996881       31.4979926867       25.7731431851
  C        16.6572589063       31.1473882381       23.9058583196
  C        17.8925089533       31.3044619910       23.2605846311
  C        18.1618789678       30.6182933091       22.0755210101
  C        15.6641443538       30.3744885066       23.2829008782
  C        15.9246946505       29.6835820827       22.1050425486
  C        17.2004016192       29.7614003909       21.5237976074
  S        17.5329109987       28.7472801351       20.0936159229
  O        10.8411819723       30.7508987526       20.3421696117
  C        11.0132100623       30.5795178533       21.5349478843
  O        10.5351775338       31.4895642341       22.4289364090
  C        11.7885924883       29.4090894378       22.0611278313
  C        12.2694299366       28.5085175260       21.0976891529
  C        13.0509285185       27.4225270108       21.4682980715
  C        12.0944162195       29.1829138948       23.4123170316
  C        12.8756080573       28.0895234161       23.7932331709
  C        13.3709168772       27.2094833265       22.8167690056
  S        14.3313657181       25.7955069524       23.3207108037
 Au        16.5513814078       26.5736828205       23.6813525167
  O        18.6466622181       30.7520026437       30.3779279921
  C        17.6075260055       30.2321955514       29.6518900589
  O        16.4754184579       30.3026799405       30.0827557506
  C        17.9347730438       29.5693870781       28.3507363094
  C        19.2305577286       29.3999952791       27.8370778465
  C        19.4432948634       28.7363684546       26.6289204810
  C        16.8485850076       29.0650317497       27.6191668838
  C        17.0504942624       28.4037974794       26.4149932911
  C        18.3490922888       28.2299838943       25.9072957502
  S        18.6384224927       27.5315660456       24.2944467721
  O        16.8565012575        6.7593927966       20.4218465174
  C        15.9988000532        7.4777259329       20.9079566177
  O        14.7028098242        7.0455136406       20.9416360586
  C        16.2890901950        8.8469316313       21.4359093905
  C        17.6258123282        9.2770412229       21.3890559455
  C        17.9749207783       10.5750018779       21.7428970309
  C        15.3149530763        9.7380790446       21.9149888405
  C        15.6527590681       11.0417830491       22.2732429479
  C        16.9809872825       11.4847601039       22.1555908459
  S        17.4916794450       13.1329785793       22.5755587757
 Au        15.5364856937       14.4281489638       22.7378857700
  O         9.2032194588       12.9221609505       18.8574041745
  C         8.9871366526       13.6961621618       19.7722887799
  O         7.7301708095       14.2508031238       19.9014031393
  C        10.0455003669       14.1366273999       20.7243184700
  C        11.2629402588       13.4318347044       20.7085942000
  C        12.3619937005       13.8809323326       21.4319937980
  C         9.9366679469       15.2680913760       21.5465790862
  C        11.0300154819       15.7200763609       22.2825002435
  C        12.2640689525       15.0537510097       22.2006073822
  S        13.6194127282       15.7538476952       23.1179907595
 Au        21.2926922476       20.5296691928       24.4869971147
 Au        19.4188877072       20.5900799962       18.5793131823
 Au        18.8697286102       23.1055023452       17.1347414449
 Au        16.6371957861       21.2458039741       17.7792298958
 Au        17.6432262310       18.4713762874       17.5088794898
 Au        20.4350235990       18.6477755481       16.6298828717
 Au        18.5985686358       21.4846163802       23.6800925218
 Au        19.8782657011       23.0966314616       20.0254552555
 Au        17.6277439610       21.3445106850       20.7196115186
 Au        18.5293021243       18.5320723282       20.4709838986
 Au        16.7032174994       22.8268089910       15.2707031904
 Au        24.1216253049       19.6871682630       24.5054509839
 Au        18.1193270966       17.7406624871       14.8380600117
 Au        18.9480029511       19.8046953385       26.0799442214
 Au        19.7242206945       22.8810638063       14.2792388541
 Au        17.0869097902       23.9267808625       19.2843113525
 Au        15.7328952035       19.2795595500       19.7334046372
 Au        20.3239627828       16.2825403365       21.5888578282
 Au        16.6387001897       19.3811178747       22.7044009401
 Au        18.0857177394       23.9630490934       22.1978006281
 Au        15.1477486929       16.6164082194       14.5371506181
  O        18.6370459436       11.1313522239       10.6192046281
  C        18.2672994562       10.7331070434       11.7080767424
  O        18.7058498694        9.5127190239       12.1674724282
  C        17.3967962562       11.5489948170       12.6142646767
  C        17.0260254940       12.8253958914       12.1551151128
  C        16.3744242848       13.7268421008       12.9904870837
  C        17.0103663003       11.1647480010       13.9084986307
  C        16.3626293101       12.0615840364       14.7574101753
  C        16.0869660602       13.3676748749       14.3168119319
  S        15.4078771084       14.4910895911       15.5178318530
  O         7.9452678345       18.9299868744       14.8482936982
  C         8.6747999430       19.6312568130       13.9189205560
  O         8.1639542101       20.5821037430       13.3592042113
  C        10.0971575564       19.2222015214       13.7040568573
  C        10.6923087027       18.1139968810       14.3241896041
  C        12.0658971989       17.9042223236       14.2467478649
  C        10.8985657387       20.0558312680       12.9046533244
  C        12.2738056298       19.8512978047       12.8152281937
  C        12.8749283757       18.8003157102       13.5358663623
  S        14.6540901841       18.6788328090       13.5072418559
 Au        20.3551262501       25.6648498593       21.3805962061
 Au        14.9090314075       22.1338858675       20.0145826684
 Au        16.6804195917       16.5333610156       19.5383872624
 Au        17.5063804411       16.5601621372       22.3047632640
 Au        15.8366207680       22.2233805434       22.8100072422
 Au        17.1369950193       25.3721102514       16.8687113594
  O        22.0529091753       27.7119181307        7.7228752697
  C        21.9355369619       26.3711928576        7.9055745933
  O        22.5792736468       25.6144650151        7.1975239494
  C        21.0436122750       25.8531882026        8.9962572403
  C        20.4905036406       26.6486343698       10.0105021503
  C        19.7582409041       26.0719321875       11.0485838620
  C        20.8066675133       24.4676786935        9.0139972608
  C        20.0586627515       23.8859482801       10.0322936020
  C        19.5458893651       24.6880058514       11.0698971082
  S        18.5555035105       23.8871043073       12.3133396812
  O        17.9040460644       33.3489013462       14.4765099578
  C        18.1390976871       32.5958317214       15.3973712853
  O        18.8562065454       33.0482153981       16.4863162407
  C        17.7173704762       31.1605584686       15.4042951892
  C        16.8552870861       30.7396292042       14.3771257019
  C        16.4462789613       29.4118626351       14.2930616705
  C        18.1601899677       30.2190824371       16.3449170700
  C        17.7538845459       28.8871275630       16.2728716063
  C        16.8973876076       28.4765799382       15.2442310479
  S        16.2352158260       26.8243365038       15.1371846807
 Au        17.6761998100       25.5008642663       13.7925101272
 Au        14.8550556427       23.4777937146       17.4216335259
 Au        13.8135908826       20.3631737836       17.9863618377
 Au        14.9030590326       17.6114516236       17.4083410642
 Au        17.2042896864       15.6607748528       16.8248228165
 Au        19.3865839337       15.9809434526       24.4181089517
 Au        17.0610080892       17.7992140368       24.9707444414
 Au        16.3311112012       20.8249241049       25.2719652453
 Au        17.2361272571       23.8153574884       24.8827407293
 Au        19.9949149770       25.3999712812       15.8027117387
 Au        22.2333080376       26.4074555853       19.2530439287
 Au        15.2975812376       24.6614569462       21.3498611525
 Au        14.0250803782       20.1742032940       21.9606345500
 Au        14.7711677617       17.3706227771       21.6194233199
 Au        18.3753248227       14.3892187428       20.4605884984
 Au        23.2629566636       26.6128954616       16.3771690022
  O        21.1671883879       29.9236156792        9.4241234352
  C        21.9816386148       30.1559760812       10.3099202961
  O        23.0894414992       30.8956717182       10.0356737969
  C        21.8365694075       29.5956310826       11.6821050375
  C        20.5541258284       29.5131429664       12.2520983930
  C        20.3649799443       28.8810886804       13.4774694480
  C        22.9277111962       29.0288697050       12.3563282386
  C        22.7358354857       28.3650274170       13.5669361603
  C        21.4564590760       28.2860218880       14.1392229032
  S        21.1816884916       27.5762841215       15.7526471051
  O        29.0429771568       30.9057099713       19.6986660108
  C        28.8481259138       30.6183380290       18.3737572790
  O        29.3334352406       31.3389165235       17.5237332262
  C        28.0350759534       29.4049582208       18.0512947456
  C        27.4479474908       28.5758841699       19.0186298920
  C        26.6704616132       27.4840087900       18.6411786851
  C        27.8535537887       29.0930364961       16.6917850437
  C        27.0724099080       28.0063688698       16.3082601501
  C        26.4540213992       27.2037614019       17.2860078632
  S        25.4758599464       25.8080875229       16.7718660880
 Au        18.9095724932       13.2890842671       16.8523617338
  O        11.6560161386       10.9911450363       17.5248103588
  C        12.7801729054       10.2118244448       17.5218516054
  O        12.6957086718        9.0547126320       17.1542440229
  C        14.0800252451       10.8155248313       17.9628351974
  C        14.2533897076       12.1438352729       18.3824186772
  C        15.5205867819       12.6337165117       18.7088609225
  C        15.2045716959        9.9714407584       17.9174041721
  C        16.4697580986       10.4510458685       18.2401090285
  C        16.6407155277       11.7971577257       18.6121160755
  S        18.3133819982       12.3592427881       18.9152483349
  O        23.3204164586       10.3944649512       10.5326330591
  C        23.0053730092       10.1267977147       11.6748444198
  O        23.4672893775        8.9750994360       12.2512249216
  C        22.1392181495       11.0268116014       12.5012349542
  C        21.6805830389       12.1983662030       11.8762963233
  C        20.8993961053       13.1144535496       12.5691369676
  C        21.7808093554       10.7868107274       13.8369625486
  C        20.9936471627       11.6984148356       14.5408755821
  C        20.5554581643       12.8722244599       13.9107529344
  S        19.4294312652       14.0196203579       14.6704324490
  O        27.0213718814       28.9659407398       27.0358387456
  C        26.4556716692       28.2863463918       27.8885984670
  O        26.0028305791       28.8956413137       29.0263805930
  C        26.1746531769       26.8398997350       27.7185698803
  C        26.7191050384       26.2168714866       26.5826962870
  C        26.3645378529       24.9206897091       26.2424407295
  C        25.3170679590       26.0960897025       28.5504028081
  C        24.9521898728       24.7923177464       28.2180348442
  C        25.4421742224       24.2113076301       27.0313892754
  S        24.8362926245       22.6049103164       26.5836287173
  O        32.0014457375       25.1772410224       20.4920416811
  C        31.8007548087       24.9989698377       21.6814769652
  O        32.3855706191       25.8452202615       22.5867921792
  C        30.9028040487       23.9321450693       22.2109200077
  C        30.4727416972       22.9425599670       21.3107279546
  C        29.5512945089       21.9751280944       21.6988043387
  C        30.4116457278       23.9038690718       23.5277535003
  C        29.4844871250       22.9416164046       23.9229132961
  C        29.0257456929       21.9846521977       23.0011017423
  S        27.9009297672       20.7068256251       23.5249042563
 Au        26.2994663564       21.7914181728       24.9022826675
  O        17.9716175975       21.6025904925        7.5741238265
  C        17.5305695935       21.6026609411        8.7071016041
  O        16.9188586223       22.7321219262        9.1935993776
  C        17.6483156122       20.4521970043        9.6557174049
  C        18.1030761416       19.2138179057        9.1675378215
  C        18.3140439825       18.1407640558       10.0333082527
  C        17.3849922931       20.5772792334       11.0267096294
  C        17.6107848898       19.5175937255       11.8980117955
  C        18.0959224754       18.2991135328       11.4156635832
  S        18.4146113495       16.9306377530       12.5222966335
  O        25.8447692675       10.8428113915       14.1008516123
  C        25.9890010052       11.6682150314       13.0038417270
  O        26.7407749360       11.3536749481       12.1061392373
  C        25.1964999694       12.9384881868       12.9912336636
  C        24.3413687563       13.3349327873       14.0288622631
  C        23.6670579972       14.5502803518       13.9774750793
  C        25.3307039143       13.7756218755       11.8691882714
  C        24.6606759410       14.9985392571       11.8081733547
  C        23.8412927312       15.3996394328       12.8809680713
  S        23.1561688038       17.0485620660       12.8165238296
 Au        20.7800093915       16.9425646668       12.7559985605
  O        25.3172289965       16.5604346058        8.0241446991
  C        25.5414519196       17.6155419555        8.5897375038
  O        26.8133432141       18.1154182387        8.6052168796
  C        24.4902431979       18.3961116537        9.3173689550
  C        23.1424376767       18.0696215166        9.0889573825
  C        22.1243283644       18.7218915406        9.7816007081
  C        24.7926925916       19.4007663966       10.2492367780
  C        23.7819366795       20.0513246807       10.9509734602
  C        22.4397473888       19.7110749687       10.7322117556
  S        21.0867397409       20.5098614014       11.5791628042
  O        29.0402623611       23.1663548565       10.7676245149
  C        28.6873314096       24.1964291923       11.3141983458
  O        29.6292675993       25.1046381068       11.7288151744
  C        27.2592221852       24.4852571763       11.6271654304
  C        26.2737157082       23.8625798265       10.8406072350
  C        24.9301609018       23.9471911615       11.1895038521
  C        26.8663397748       25.2340905384       12.7471506715
  C        25.5239742334       25.2980766479       13.1174076053
  C        24.5519331967       24.6253344982       12.3636180228
  S        22.8436159421       24.7082554250       12.8646248391
 Au        22.0188111276       22.5371321067       12.3660643249
  O        32.7511072246       14.7819014380       24.3653100866
  C        31.6727406037       14.2344902175       24.4721644896
  O        31.5663918760       13.0598203190       25.1749788569
  C        30.4117541471       14.7832620259       23.8819185199
  C        30.5371573517       15.8006533556       22.9217136163
  C        29.4113778629       16.3196993235       22.2899919475
  C        29.1292690686       14.3334524277       24.2324451895
  C        27.9958040701       14.8422756152       23.5997362679
  C        28.1330293562       15.8258551008       22.6063207579
  S        26.6897779196       16.2435849056       21.6458453496
  O        31.1932628038       17.8203922362       13.4302333219
  C        31.6450177030       17.8376024811       14.5587665666
  O        32.9099850351       17.3754148274       14.7856448216
  C        30.8478407610       18.3427979918       15.7242888412
  C        29.5280740654       18.7150467800       15.4282030184
  C        28.6714273447       19.1624135134       16.4232827372
  C        31.3022266951       18.4572050811       17.0485983332
  C        30.4503341246       18.9180124277       18.0564333369
  C        29.1230683607       19.2608560469       17.7459654216
  S        28.0617413738       19.9157906987       19.0178653274
 Au        27.2836715225       18.0953099990       20.3011763634
  O        26.3626834878       30.8893741459       24.8828872628
  C        25.8807950988       30.5026003979       23.6675319419
  O        25.1764580842       31.2632924915       23.0222956895
  C        26.2366534459       29.1288571347       23.1853111361
  C        27.4085365226       28.4542429622       23.5633237514
  C        27.6357311335       27.1429831180       23.1365134370
  C        25.3315017108       28.4871421074       22.3217237917
  C        25.5287812940       27.1637733833       21.9339683440
  C        26.6709730600       26.4695164421       22.3638444231
  S        26.9461435677       24.7195608035       22.1256592220
  O        28.1565953243       15.6746980111       11.5777277654
  C        28.5528605288       16.9701533691       11.3630254806
  O        29.4103379158       17.2207205720       10.5425214140
  C        27.8707039394       18.0493247215       12.1551274663
  C        26.8795336482       17.8202086272       13.1211671850
  C        26.2533078368       18.8862448728       13.7671043039
  C        28.2571977392       19.3739066457       11.8835675721
  C        27.6353456733       20.4472506285       12.5191023219
  C        26.6100379985       20.2032650101       13.4527890658
  S        25.7036244863       21.6061101011       14.0910848694
  O        30.9672063044       28.1503127637       14.4724314163
  C        31.0905070180       27.8988333298       15.6586471716
  O        31.7126935278       28.8016134576       16.4776249326
  C        30.5161646315       26.6600610936       16.2691397274
  C        29.9876428747       25.7012344171       15.3861792998
  C        29.2659178559       24.6110842280       15.8590781328
  C        30.3853145404       26.4468235119       17.6489121313
  C        29.6666902723       25.3560126452       18.1331567155
  C        29.0592396237       24.4585819553       17.2407039447
  S        28.1352740189       23.0786544385       17.8907118658
 Au        27.1196801512       24.0047617401       19.8602207292