1381
Energy =  -8312.3683453159
 Au        23.3874214318       23.4291533148       23.7446364574
 Au        21.5435184828       22.4667619455       25.7408626425
 Au        23.1081499851       20.5746066280       23.8822448916
 Au        20.8835028541       22.3319157769       22.8501738217
 Au        24.4742557842       22.1762569598       26.0840832765
 Au        20.9981127080       25.0105221841       24.2117194441
 Au        23.2143795623       24.9540753803       26.1334460046
 Au        23.5315032499       21.9213641434       21.3308573860
 Au        25.7970445433       21.8471364938       23.4888427486
 Au        22.1879176665       24.6670272328       21.4324949537
 Au        25.8609755903       24.5806817262       24.6577124307
 Au        23.6803231429       26.2331589276       23.3524871270
 Au        25.3347563190       24.2652638497       21.7667152419
 Au        21.3410316381       24.0977612031       28.2089073921
 Au        22.6008239417       21.2219337717       28.1744955829
 Au        18.8714818658       21.1952499076       24.8996667359
 Au        20.9960816614       20.8131273532       20.3332949783
 Au        24.0021854558       19.2942241991       26.3896324673
 Au        21.1777545989       19.5522061180       25.8217445254
 Au        20.3896897649       19.4961722788       22.9021652789
 Au        19.0866074802       23.9259691950       26.2008061224
 Au        25.5707446040       19.0008933988       23.8728999988
 Au        19.6004743554       23.5108125048       20.5092327956
 Au        23.0634437420       18.9678970053       21.4170253983
 Au        24.2596272777       23.7106949222       28.5779167601
 Au        18.3738491666       23.8902685111       23.2862083972
 Au        26.8434012323       23.3360533010       27.2368660057
 Au        20.7380970950       26.6122092604       26.6524821536
 Au        26.1747832205       20.7791381160       20.8386931518
 Au        19.6853850096       26.2109839230       21.9460583706
 Au        26.8685571005       20.5003145366       26.0558986199
 Au        22.1722469020       23.1227667737       19.0207361575
 Au        21.2553052197       27.8760586851       23.8609198302
 Au        23.6191258242       27.8609531145       25.7654347332
 Au        25.7132826273       26.0727839707       27.1285131542
 Au        23.9674520051       25.7911676518       19.4839666846
 Au        25.0896228102       22.9762384318       19.1056402737
 Au        22.3335395772       27.6296142585       21.1019810467
 Au        28.2950507068       22.9718757868       24.7419755121
 Au        27.9660922560       22.9507141016       21.8447825615
 Au        27.9367543877       25.7056470450       22.8121666523
 Au        26.2066548797       27.5185693068       24.4326553494
 Au        25.6798713147       27.1198605406       21.4042466579
 Au        19.6917587893       21.3813663553       27.7287137108
 Au        22.6978435263       17.7490793107       24.0399304120
 Au        18.2793608573       21.2889350047       21.8732462115
 Au        18.5544959269       26.6020270670       24.6916588988
 Au        25.4624990187       20.8777543119       28.6132450082
 Au        23.2166639019       26.6720046611       28.4931228579
 Au        23.6694450928       20.5025851971       18.8094036438
 Au        28.2186655145       20.2991714294       23.4068313566
 Au        20.6133189314       25.8583652103       19.1895790868
 Au        24.0151151617       29.0607822305       23.0093526914
 Au        28.3041555780       25.7622432214       25.8076310237
 Au        26.9457790954       25.1386360561       19.5421809585
 Au        22.1792017015       18.4188204621       28.2959946324
 Au        17.3428835425       25.0447221737       20.8105183636
 Au        18.4938731046       23.6647143471       29.0219823475
 Au        20.9071174496       22.2709622263       30.2835992547
 Au        18.8003491080       18.6554807376       20.6587576834
 Au        18.5875033390       21.2187805049       18.9737790067
 Au        17.5720446318       18.9204706683       23.3158724646
 Au        18.7237275807       18.7459200094       26.8420392708
 Au        16.9664925956       22.1722469762       27.0259580342
 Au        21.6035567936       18.5038845546       18.8578466784
 Au        20.5488251447       26.4741176835       29.5335366982
 Au        26.2539404149       18.2284771904       27.7813915715
 Au        27.8478099137       22.4689713987       19.0204183570
 Au        22.7438641957       24.7719614637       30.7694161986
 Au        16.2888952937       22.0243769623       23.8888679876
 Au        25.8838455068       28.8805965975       27.0314686037
 Au        19.7204714835       17.3139001052       24.5368339116
 Au        20.9069771663       16.9625484492       21.8557449155
 Au        23.7980802533       21.9424645566       30.7846994866
 Au        25.1944816197       18.2962538228       19.7546479174
 Au        25.0346102417       16.6924717909       25.4040583202
 Au        24.8641692385       16.7053721434       22.3676881401
 Au        21.1377140087       21.0464388224       17.3492216880
 Au        26.6136468597       23.1079429414       30.1784870338
 Au        17.9232899605       26.1141200636       27.4728055023
 Au        28.3440130101       21.3162061595       28.5007608362
 Au        28.1458942192       25.3801594172       28.6473605785
 Au        21.8121118019       29.0156854578       27.6618113206
 Au        16.4428175501       24.5663438035       25.3176660838
 Au        27.7083452985       17.7694130580       25.2908724760
 Au        27.3450590362       18.3217965454       21.6257186743
 Au        19.9814565736       23.7362459622       17.4111616567
 Au        19.8271469599       28.4707968688       20.1080642149
 Au        19.6666850437       29.3193063023       25.7206072725
 Au        25.4489481510       24.8810803242       16.9436053971
 Au        25.4081849554       25.7783768786       30.0975050541
 Au        29.9033354979       23.5453562281       26.9862178332
 Au        18.6626162753       28.7487280736       22.7795692650
 Au        22.5826591292       25.1813810370       17.0934614942
 Au        29.8213434368       20.8716122445       25.7795648631
 Au        22.2778470525       27.8555717922       18.1606069659
 Au        23.6301058155       22.5560053206       16.5432378643
 Au        22.2320967351       30.3323986627       24.8818211172
 Au        26.0298849409       27.5946742974       18.3852842849
 Au        21.2236512021       30.2288792243       22.1125001312
 Au        24.7733860740       29.4692852613       20.2570022710
 Au        30.4941206099       22.0120882525       23.1541155663
 Au        30.5154668467       24.7504595384       24.3571621380
 Au        29.5660295809       24.9668678219       20.6402907990
 Au        28.9639376200       28.0176312607       24.1728707723
 Au        28.1783673588       27.7061451683       20.2857257548
 Au        26.8286087338       29.5273332430       22.3971110588
 Au        18.8596287433       19.7388570658       30.0737342798
 Au        25.2273375385       18.9323952744       30.9247812590
 Au        15.6023027356       21.4863689891       20.5085608301
 Au        18.0109711216       26.5872773942       17.6973275622
 Au        25.1441721687       19.3340409564       16.5391920777
 Au        24.4383669287       29.2063359334       29.8284188118
 Au        22.7308217195       14.7396801444       23.8914705599
 Au        30.2312305910       27.8332049116       27.2707500404
 Au        29.0023179712       24.5763710772       17.2608927692
 Au        16.6866982575       28.9215640760       25.6643815834
 Au        30.2846474714       18.0781555568       23.7998832300
 Au        20.0572759003       16.0688833073       27.4729764585
 Au        23.7723930989       32.0037892034       22.3668455227
 Au        23.8832106541       15.7015418538       19.4690387006
 Au        14.7943469080       26.0158266775       23.1819858608
 Au        19.3143101428       29.7688977050       29.0011380007
 Au        29.1579375371       17.7271981114       28.0785132404
 Au        19.8222408882       24.4677060706       31.9918511503
 Au        18.9208944597       18.7344966757       17.1960861825
 Au        15.2858779076       19.9727230082       25.8425826966
 Au        20.9102075640       30.8776361039       18.9398008811
 Au        29.9641871529       23.5401953875       30.2824937036
 Au        30.6584466527       21.5226388360       20.0611230847
 Au        27.9891483183       30.7515374282       25.2056608793
 Au        24.2278013181       26.8750414421       15.1823780343
 Au        31.0825305808       27.3230013840       21.8624921512
  S        20.5503801732       20.2422495914       31.6468092178
  S        16.4136179565       22.2348366156       18.4405517792
  S        29.1746273066       27.4935069937       29.3390661804
  S        25.1974215705       16.9512675601       29.6428136453
  S        27.3676616248       23.7622730613       15.7602775919
  S        23.7192703892       14.7365669892       26.0541588414
  S        26.7031575664       18.0835320616       17.7797443003
  S        25.3420137858       20.8150038847       32.3400761542
  S        29.1743061266       16.7709452929       22.1502276071
  S        23.2725635871       30.8061727771       28.5296225598
  S        21.8370653859       16.1345544536       18.3826745026
  S        21.7128499761       14.6609043517       21.7518307797
  S        16.9300403550       30.2145395234       23.6973256214
  S        17.6030583019       28.4958584652       19.0269803212
  S        17.1389966403       18.8710157255       28.7085659318
  S        19.2537561315       28.1669929815       30.7259337916
  S        20.7082687843       16.9594414607       29.5587272537
  S        17.9560995805       24.6069808699       16.4094605214
  S        16.7082035666       28.1754249477       27.9138669014
  S        23.5844603560       32.3752799003       24.7126191218
  S        14.5681010972       20.7948182622       22.4958149744
  S        29.9381974120       19.6059472049       29.2546798152
  S        17.7167909274       24.8903729405       31.0040497685
  S        15.3686120400       26.4241832502       20.9487735199
  S        18.3641512354       17.0876060202       18.7957375821
  S        25.6953534532       14.9327406282       20.8008411507
  S        21.8752396296       24.0561448812       33.0926736015
  S        31.2258144847       18.8878562763       25.8530037009
  S        26.0665868039       27.9402771520       30.9837101469
  S        19.3893133658       20.4780281701       15.6727122672
  S        22.3638236663       30.1117768823       17.2528750762
  S        28.2287846696       24.1272532563       31.7759765801
  S        23.7332837546       20.5495632196       15.0999449993
  S        28.7060134256       15.8759207051       26.6694069861
  S        29.1962086678       20.4788092329       18.5388945516
  S        15.8877596246       17.9409082432       24.8003906233
  S        19.2143600823       31.3195624409       27.2197360007
  S        14.4607407748       21.7965354350       27.1078760165
  S        27.7448349031       30.3634402064       27.5226687201
  S        23.9825840934       31.7529820584       20.0099463444
  S        19.6161171082       15.0181646828       25.4127406803
  S        23.1792952125       25.3211760437       13.7558039499
  S        30.7065429178       25.5994948128       18.5333686991
  S        31.1852810755       28.4673850147       25.2061063030
  S        14.4103155721       25.9638382458       25.5046501697
  S        19.8177268692       31.8997212146       20.7842938527
  S        31.6128881990       22.9767177178       28.6745086832
  S        25.3021778219       28.6747049134       16.3231602188
  S        32.3367477007       22.2094978343       21.5691621782
  S        28.3884478339       31.3445815081       22.9552105704
  S        32.2257470184       25.4743409353       22.7764674256
  S        30.1262047128       29.1422663209       20.6893813332
  C        19.6810716353       20.4609719737       33.1955127802
  C        27.9335219088       24.3471102370       14.1627836856
  C        15.4467092407       21.4995930197       17.1311979149
  C        24.7143047790       13.2568387140       26.1971177788
  C        20.1134145718       28.8688152560       32.1293360105
  C        26.6737083954       16.4075934957       17.1730495724
  C        26.2859794223       15.8214913364       30.5003198407
  C        15.3696196792       30.3699952180       22.8543095131
  C        30.3414244712       27.2848127513       30.6699103306
  C        16.6599812818       16.6672649399       18.4399962841
  C        17.4253559604       29.9072735242       17.9537995362
  C        30.2620864371       16.4504383366       20.7681100151
  C        24.7881067215       20.2853036358       33.9580382285
  C        21.9770805409       15.6436988277       16.6720442351
  C        22.4411530495       31.9870068015       29.5749489576
  C        20.3261288189       13.5429777313       21.7498789332
  C        15.0697015996       28.0025875695       28.5871447515
  C        29.9767491425       20.5238851118       16.9345957640
  C        21.5054040091       15.5999908526       30.4066345064
  C        29.9619820907       19.2318445373       30.9961675087
  C        16.7700270637       17.3030189126       29.4843402584
  C        25.1571453761       13.2774686115       21.2032960079
  C        12.8735761762       21.3304338425       22.2770953487
  C        32.9510500638       19.3467478500       25.8036475036
  C        16.4661850759       24.1125836099       32.0159362854
  C        21.5907845410       30.2406617091       15.6474935518
  C        19.8993664849       19.9495944667       14.0523036589
  C        30.2894354525       15.2103327939       26.1933135210
  C        22.5783454069       33.8402222044       24.9240759476
  C        18.1267213757       24.9824770904       14.6678167838
  C        17.5693744472       31.9991630899       27.1490892964
  C        21.7717144820       24.8493167070       34.6906114236
  C        32.9072224819       24.2106645422       28.6847351200
  C        14.0244877587       25.9330972877       19.8825296480
  C        25.3037474158       32.7777634526       19.3765787714
  C        24.5933903185       20.6345935152       13.5339806698
  C        18.0002863161       14.2614284612       25.5560318192
  C        20.3809388552       33.5825887035       20.5528799827
  C        28.4375018201       23.4828400815       33.4241606133
  C        25.9552190612       28.0874129771       32.7588067561
  C        27.2515203719       31.9268176944       28.2370337863
  C        12.8797096581       25.0929810295       25.7985905781
  C        14.3534602700       17.3693795682       24.0815799760
  C        23.4280167754       25.9224189058       12.1043929669
  C        13.5563680675       21.0098476535       28.4379081796
  C        32.2803793190       24.8133623101       18.2598913533
  C        31.5042438288       30.2237904476       25.2806759190
  C        26.6839386147       29.1134404380       15.2771763894
  C        33.4537418461       20.8119258914       21.4283447824
  C        27.8888941312       33.0563072977       22.8337640946
  C        31.1806108006       29.4735441985       19.2894973996
  C        33.8619968184       25.9603190695       23.2966518527
  H        20.8770917864       18.9011745361       34.0945807358
  H        30.0149727376       23.9469204853       14.5932643234
  H        25.8639029261       16.5792854855       32.4759705185
  H        28.4930433113       15.9536060329       18.2574911220
  H        32.2639594055       25.2639167467       26.9143593383
  H        21.8870958493       17.6092263258       15.7747996555
  H        22.5175907344       30.9019309454       31.4408217981
  H        16.9509762661       21.9388002762       15.6449380669
  H        31.9994023545       20.4192243626       17.6833586043
  H        21.1809349398       28.1400691989       15.3459104707
  H        26.6186112391       14.2064482486       25.8413166373
  H        16.1028054390       30.8388245473       19.3787024340
  H        25.8183022653       13.3711452044       23.2597473546
  H        16.1601087896       31.9344186846       21.5932006617
  H        23.5051666083       23.7583828987       35.3916632924
  H        16.4498089987       16.2387953751       27.6259707068
  H        29.5781703555       30.2598606641       18.0733461973
  H        17.0871037173       15.3330835029       23.9207897512
  H        21.9550381766       27.7528967148       31.9475870825
  H        25.2063130818       18.5612537124       13.5998498472
  H        20.6840982460       16.2631753499       32.2879801209
  H        32.7529111023       19.6788964330       23.1217443993
  H        26.5842497301       31.0066677981       30.0721736149
  H        32.1555568625       27.1912882865       29.4996405245
  H        16.8938716523       25.4293070802       33.6724926479
  H        20.7817965803       32.8160356088       25.5396960833
  H        17.3131763122       14.7744517892       17.6310949344
  H        31.0089081851       18.4552761081       20.4670134932
  H        32.6284053969       21.4769531449       25.8990779262
  H        22.8848269644       21.3097132468       33.9541757743
  H        29.0702558857       33.3145465091       21.0442529824
  H        33.2393489480       26.1655114634       19.6473112963
  H        27.2233926977       27.1246115732       14.6250420547
  H        12.1548813936       19.5993092140       23.3517772249
  H        20.8515646165       12.4645075554       23.5402152466
  H        15.6972656029       26.5483517833       30.0588452496
  H        29.5818977123       14.5550583007       24.2603266669
  H        18.4049291104       30.0982594311       32.6068700785
  H        19.5329222680       14.4133550360       19.9336281353
  H        15.3045831864       25.1525952777       18.3237837295
  H        26.6209717252       19.1918962486       34.2878455315
  H        28.7597489986       17.4356917507       30.9088569759
  H        15.6936623251       18.4533479323       19.1758035633
  H        29.7177649396       14.3588312057       20.8031065640
  H        28.7412296423       27.3632630824       32.1213515509
  H        20.2893442555       25.0584065154       14.5568500392
  H        26.6470471987       31.1568154470       18.8982670050
  H        14.1372374930       29.4416342001       27.2761916166
  H        14.2737471581       28.8798169298       23.9716685732
  H        17.9312702192       32.8850655979       25.2073003534
  H        26.3172329192       23.2434609753       33.7401783712
  H        31.1816776668       20.9620413534       31.4244545256
  H        21.0136150567       21.7718992316       13.7285177195
  H        21.0341329026       33.8942299886       22.5876822581
  H        12.9762252659       23.6647066841       24.1825350873
  H        14.4013507691       19.0311800622       28.2731320140
  H        18.8656734628       18.0526838743       14.0512907266
  H        24.9457312534       26.2223197766       33.1507328197
  H        22.9960539505       12.0188085744       26.6236044927
  H        13.2637633988       17.7531537971       25.9094668517
  H        31.8719692219       30.3180433075       23.1537262363
  H        24.3340704915       27.8252972792       12.5688847513
  H        16.8843708509       31.2589664739       29.0545073044
  H        13.7396710255       20.9628747274       18.3429238716
  H        15.9814008610       24.9556603272       14.4308426435
  C        25.1666605070       19.4677418016       12.9974963341
  C        15.5547144404       17.4840720043       18.6970529317
  C        23.5870034393       20.7154465653       34.5378937691
  C        16.9523916451       14.5597804813       24.6741149183
  C        18.6490904782       21.3790499526       33.4155721253
  C        29.2995562223       24.2622744203       13.8353207305
  C        22.6918337220       24.4269744585       35.6693330197
  C        21.1403497414       29.1373599927       14.9090493043
  C        31.0334588260       17.4224594736       20.1224282629
  C        15.2736311976       31.3664332421       21.8706590645
  C        15.9444359292       21.5699445702       15.8218419975
  C        16.4575279470       15.4168475890       17.8298953279
  C        33.0242449874       25.1897328464       27.6927473441
  C        31.7307925021       27.1993271186       30.5013795796
  C        22.2144746541       31.8226848168       30.9456028891
  C        26.1119158197       13.2764661777       26.0958895557
  C        19.4114409298       29.8071609905       32.8999915162
  C        21.4022953894       28.4906968414       32.5289518342
  C        16.4058914832       16.1882330543       28.7128870616
  C        20.0788795370       19.6236920284       34.2518871405
  C        21.2668111215       15.4950098980       31.7834519597
  C        26.4011227382       15.8278620532       31.8982850014
  C        25.3735361521       12.7496615932       22.4855495888
  C        21.9406794189       16.5365577553       15.5923945902
  C        31.3704282373       20.4091396426       16.7942092013
  C        27.7327870105       15.5760971698       17.5763437328
  C        16.5939595493       30.9379610031       18.4135535692
  C        20.1675527170       12.5221757939       22.6948035256
  H        13.2495529745       23.1447953092       21.1557011957
  C        14.2147243775       29.6573926601       23.2110367175
  C        24.0806751766       12.0523532826       26.5392696039
  C        16.2387184395       24.6472965860       33.2937673614
  C        19.4291907810       13.6162123427       20.6685779371
  C        25.6799600344       19.5205206459       34.7258922255
  C        14.8829705742       27.1832886298       29.7133080749
  C        30.3133950410       15.1225455868       20.3071055964
  C        33.3693525853       20.6781463168       25.9098738445
  H        31.3079957100       15.7300171645       28.0258902405
  C        14.1432511679       21.0140337518       17.3320729982
  C        21.2551934570       33.7840030894       25.3828600125
  C        29.8155090537       27.2909729784       31.9716701761
  C        29.3810980092       18.0741116888       31.5356702089
  H        18.3146095856       22.0231331630       32.6049955307
  C        30.4144505864       14.5524548618       24.9607233946
  C        19.4567713132       19.7218078565       35.4970042766
  H        24.1889639187       34.5996885523       19.6986370439
  H        33.6025087314       17.2842422674       25.7667209827
  C        30.6549459959       30.1310684765       18.1674256792
  C        11.8750237243       20.4785948984       22.7734484887
  C        14.0074474609       28.8079681181       28.1523900260
  C        26.7442178310       31.9452323080       29.5435210163
  C        33.4856512443       19.7373702751       22.3190434021
  H        19.8069186455       33.6168257947       18.4691201190
  H        18.6813536678       29.2464685800       16.3236006418
  C        30.7383791924       20.0522630695       31.8281525257
  H        22.4788796099       14.6909223834       28.7048750552
  H        15.1264721865       16.8753607781       22.1258317189
  C        20.6329216192       20.8586991859       13.2752165674
  H        22.5814869734       24.1171017585       11.2598337476
  H        24.8736041249       16.5231401942       15.9867394721
  C        14.2845963026       25.4083477125       18.6066711542
  H        15.7753406749       22.6855199103       30.5454919412
  H        12.4836808771       26.6367674343       21.2192561189
  C        17.2281684020       32.7826499772       26.0311708011
  H        26.9906967975       29.9858146198       32.7100015620
  C        26.4691699371       32.2293788845       18.8198235655
  C        19.4266055646       18.7702050154       13.4546667654
  H        30.5920298862       23.6280256460       33.4394020181
  C        19.3537198649       25.0865482203       13.9993012952
  C        25.7062017004       15.8953572232       16.3002666815
  H        24.1899701596       35.1598595089       24.3637280547
  H        12.4830613250       26.3642829463       27.5040857965
  C        33.3911640264       25.3695705848       18.9202248873
  H        16.9868259433       18.0676648021       31.4914713503
  H        26.8892098697       14.7966279970       28.6926451397
  C        27.0305928989       24.7543077237       13.1730366894
  C        20.8921997045       34.3453913621       21.6083767507
  C        18.0350467018       30.0380136612       16.6973911316
  C        16.6344672752       31.8635266181       28.1836776411
  C        27.4177774629       28.1897076456       14.5186652036
  C        26.9718973642       14.8317373700       29.7764679061
  C        28.4681648254       33.8109951868       21.8022992192
  C        12.3870404166       24.0437262790       25.0149160166
  C        29.7343202440       24.5634493470       12.5465895183
  C        27.3008524783       23.2307306719       34.2046249022
  C        12.4913105685       22.4615440790       21.5366509472
  H        12.4993140941       22.8463160662       28.8667198216
  C        31.3892058248       15.2171987133       27.0685267491
  C        16.9400026824       25.0323243170       13.9219113373
  C        33.9167433156       18.3247947881       25.8318738832
  H        31.1880195525       30.4753185612       27.4017291890
  H        19.7818745084       19.0503043675       36.2898858926
  C        25.4631219612       27.0748748461       33.5899721336
  C        22.2669169340       14.6085369910       29.7699447725
  C        13.6387837201       19.6422422540       28.7510348829
  C        24.0023103690       27.1605715377       11.7712704147
  H        33.6340385248       28.0815896143       22.9782472298
  C        13.2143318272       17.3303233736       24.9070937260
  C        25.0911132541       34.1607743737       19.2753987832
  C        15.6124147821       23.1088195431       31.5361668704
  C        16.7107064838       17.2077732773       30.8825363409
  C        31.8556407920       30.8749714454       24.0895460094
  C        20.2108609833       34.1974456895       19.2973652686
  H        24.4208746372       12.8477002049       19.2223227401
  H        22.0499589215       13.5646014799       17.2464307591
  H        25.9693258953       24.8364943449       13.4056819477
  H        22.2105234475       33.3337564435       27.8955870670
  C        22.0361561747       14.2655385928       16.4139614189
  C        22.0365017099       33.1848656075       28.9587887831
  C        23.1692702016       35.0984138851       24.7347718447
  C        29.1807541590       20.5215175586       15.7805438632
  C        12.7001860253       26.2377320508       20.2295809248
  C        24.5839774927       12.4529398275       20.2242010267
  H        20.0324364756       26.0715060104       34.3280901811
  C        23.0174147145       25.0904945401       11.0391630723
  H        28.0993076006       20.6113040684       15.8672002986
  H        30.7979705217       24.4770866347       12.3299764728
  C        29.7016908427       23.4390232736       34.0370834616
  C        12.1095826482       25.5547888626       26.8794659791
  C        14.2650657941       16.8348116557       22.7909325038
  C        26.6055564294       29.1897203615       33.3442453128
  H        34.4209477663       23.9147082776       23.7151734683
  H        24.1440124047       22.7155688339       13.1616862073
  H        27.8969234163       33.1580913835       26.5837050296
  C        20.7373403389       25.7126838549       35.0768814680
  H        18.6249604071       12.9979600259       27.1912012493
  H        31.6435919966       23.3120585141       16.8463686886
  C        12.5822649735       21.7834860136       29.0890078003
  C        31.4643326296       30.9680680089       26.4702164663
  C        24.5625243055       21.7952089045       12.7533003519
  C        21.5508734568       31.5131564082       15.0587316984
  C        17.8177362458       13.2438309022       26.5041615599
  H        21.9104286163       32.3750563122       15.6172573404
  C        27.4686230247       33.1520475060       27.5852323017
  H        26.4052629776       31.2083910172       15.7239633167
  C        27.8131468213       14.2686343042       17.1015128369
  C        26.8528814305       12.1197499321       26.3399109643
  C        32.4928904966       23.7711215688       17.3499052131
  C        33.9076890898       24.1196057478       29.6677169534
  C        15.1527557651       21.1726534572       14.7408678734
  C        34.3360972480       27.2787138757       23.1996819832
  C        31.9401140099       20.2910484333       15.5276003935
  C        27.2036180565       14.8845432570       32.5483532596
  C        26.9645345387       30.4808157451       15.1387681782
  H        26.6175843090       33.1468981404       24.5781580593
  C        21.9782198784       16.0463043235       14.2839086185
  H        33.8392274803       23.3531211365       30.4367373965
  C        21.9795395311       29.0695073947       33.6620569601
  C        21.5893505646       32.8368079715       31.6797140104
  C        34.7708049842       24.9416860624       23.6250222177
  C        34.1012212014       26.0830958499       27.7032978769
  C        14.0452842314       31.6401963126       21.2609755283
  C        27.1005367786       33.7193041481       23.7879889623
  H        34.3879717952       21.7004693835       19.6923522935
  C        20.6479822439       29.3168694147       13.6147897958
  C        34.4061506641       20.8678090898       20.3941176873
  C        16.3839227912       32.0786816103       17.6334923677
  C        20.0025999578       30.3771691498       34.0301742998
  C        25.0024156392       11.4362900763       22.7762267031