311
Energy =  -1579.1527859687
 Au        19.9666599416       20.0428793017       19.9723447140
 Au        17.2985552234       19.1614737843       19.9703910494
 Au        17.9277473538       21.7968302092       19.2029044058
 Au        18.2078929477       21.0507477499       21.9142421807
 Au        20.9696404592       22.2650738264       22.2200753768
 Au        19.2892978637       16.9899074264       20.3351497212
 Au        19.5535187994       21.1893369494       16.7325969892
 Au        18.9273260356       23.2063037633       24.6742213789
 Au        19.2601172472       24.3266036395       21.6775802687
 Au        16.5117112936       15.8711361494       19.2031139602
 Au        16.8588995766       24.8355970333       19.8673244948
 Au        21.3998124055       25.4971946002       23.4357363600
  S        18.3874898518       19.3054221112       15.9007755910
  S        20.9016804996       23.0866584041       17.1998346372
  S        17.5052430143       21.3865464796       24.1952644185
  S        16.4019608196       23.3620749492       18.0973385664
  S        15.3209410792       17.7548744733       19.9675525036
  S        17.5690350229       26.1277815227       21.7131695979
  S        20.3271846615       24.9456912685       25.4658712720
  S        17.4044806784       13.8095362554       18.4791198070
  C        15.9466345309       12.8368207603       17.8670075726
  H        15.3678371808       12.6480071311       18.7839767616
  C        15.0692454236       13.5886662994       16.8621972955
  H        15.6997207368       13.8695526712       16.0025728145
  H        14.7213264645       14.5300153406       17.3144671161
  C        13.8852231019       12.7221457560       16.3966605756
  H        13.2110319257       12.5357861509       17.2463478128
  H        13.2934402640       13.2736562653       15.6510906130
  C        14.3611283346       11.3788897479       15.8200519863
  H        13.5004059292       10.7566078240       15.5327112947
  H        14.9332496144       11.5629937501       14.8986725230
  C        15.2499790516       10.6299019790       16.8256695514
  H        15.6265956340        9.6940069540       16.3865953475
  H        14.6466642815       10.3387918880       17.6987470707
  C        16.4332468548       11.4998129910       17.2898087676
  H        17.0416962219       10.9646475248       18.0332220554
  H        17.0968676740       11.7166665253       16.4372075345
  C        16.5705276686       19.6772765681       15.9586120256
  H        16.3596920895       20.1129905920       16.9454422072
  C        16.2376062323       20.6808423318       14.8436212677
  H        16.6290912384       20.2869815795       13.8933539280
  H        16.7636948774       21.6279128370       15.0352292974
  C        14.7206192891       20.9190842854       14.7155596599
  H        14.3554570063       21.4482472149       15.6086738621
  H        14.5252374301       21.5890368829       13.8648846636
  C        13.9452387954       19.6021813851       14.5562811815
  H        14.2094296220       19.1380094386       13.5940751871
  H        12.8631322821       19.7987558049       14.5192784194
  C        14.2774389285       18.6260957633       15.6955598498
  H        13.7479391059       17.6719230953       15.5561173313
  H        13.9205444421       19.0367532671       16.6524166251
  C        15.7914421930       18.3664821540       15.7873777952
  H        16.0216501767       17.6879954495       16.6236038616
  H        16.1374307634       17.8634868577       14.8711775545
  C        19.8867439160       24.5345247907       16.6348644698
  H        18.9032574317       24.4425738297       17.1134220404
  C        20.5552777666       25.8356250301       17.0982604760
  H        21.5798027533       25.8750197333       16.6973342697
  H        20.6451346814       25.8325996738       18.1954001712
  C        19.7560236686       27.0604940312       16.6168192083
  H        18.7721777657       27.0631043860       17.1111579897
  H        20.2641201392       27.9840288963       16.9329837420
  C        19.5612051746       27.0460923298       15.0921081982
  H        18.9502612581       27.9049625810       14.7758866652
  H        20.5386551268       27.1632092438       14.6003310856
  C        18.9150247152       25.7302374578       14.6290362355
  H        18.8243301993       25.7091381115       13.5328913640
  H        17.8909198129       25.6669194576       15.0262369483
  C        19.7168615437       24.5063269627       15.1105594415
  H        19.2197367483       23.5702379619       14.8144353618
  H        20.7113311388       24.4982195182       14.6392469727
  C        18.4067296945       27.6122107164       20.9722329239
  H        19.2020199484       27.2377365618       20.3156039634
  C        17.4109031267       28.4475944384       20.1567329060
  H        16.5638051759       28.7221818683       20.8035493114
  H        16.9969355507       27.8310663984       19.3444639009
  C        18.0800420720       29.7182177052       19.5999531856
  H        18.8506380815       29.4290751995       18.8691458522
  H        17.3408877442       30.3166637631       19.0468871702
  C        18.7249628587       30.5544361753       20.7169944191
  H        19.2369680302       31.4309963885       20.2923051222
  H        17.9371140424       30.9463809782       21.3777855711
  C        19.7064534742       29.7093995474       21.5444210356
  H        20.1256231477       30.3015366874       22.3715445354
  H        20.5587162008       29.4125665578       20.9145193790
  C        19.0327428357       28.4418753986       22.1008706585
  H        19.7633518789       27.8252736035       22.6486635498
  H        18.2435971082       28.7226595809       22.8157576381
  C        15.0638615152       17.4055962249       21.7756467943
  H        16.0498397151       17.1741202688       22.1994985487
  C        14.5005441118       18.6606152986       22.4542783467
  H        13.5665256760       18.9538106416       21.9504072114
  H        15.2124188323       19.4899694017       22.3232501530
  C        14.2334970644       18.4017377404       23.9485794567
  H        15.1925928417       18.2254370598       24.4578905304
  H        13.8003322288       19.3016930502       24.4115455051
  C        13.3078700610       17.1925680905       24.1566148798
  H        13.1670931530       16.9988580774       25.2305760298
  H        12.3115326690       17.4224922513       23.7498086216
  C        13.8647666545       15.9428697048       23.4557681256
  H        13.1737584603       15.0946251277       23.5709121433
  H        14.8061155498       15.6432822908       23.9401073301
  C        14.1281687840       16.2038057048       21.9606881928
  H        14.5712571812       15.3190997863       21.4790740897
  H        13.1786341046       16.4046853750       21.4417251021
  C        14.6857175716       22.7068554460       18.3530094086
  H        14.6805056397       21.7847738160       17.7519597540
  C        14.3422196176       22.3504993523       19.7998193551
  H        14.4377065792       23.2629909317       20.4103560846
  H        15.0782300033       21.6292303542       20.1865230749
  C        12.9127888485       21.7899779798       19.9032306553
  H        12.8608121896       20.8270683757       19.3723950512
  H        12.6788278898       21.5702915328       20.9560545230
  C        11.8801224138       22.7644228400       19.3141195274
  H        10.8709674852       22.3279601342       19.3556642205
  H        11.8504288021       23.6754079963       19.9305749647
  C        12.2373636905       23.1445198802       17.8680979513
  H        11.5237206023       23.8837272403       17.4745907801
  H        12.1455594343       22.2559291981       17.2248733763
  C        13.6714461151       23.6988473448       17.7653614454
  H        13.9260799475       23.9239506613       16.7196598261
  H        13.7523335110       24.6458580193       18.3210111416
  C        19.1447106992       26.3520380278       25.7469109390
  H        18.5797072917       26.4858896012       24.8150854445
  C        18.1816455162       25.9946098486       26.8874183672
  H        18.7674362213       25.7535442183       27.7874276610
  H        17.6227990151       25.0841473829       26.6223771450
  C        17.2221279499       27.1617649471       27.1837759553
  H        16.5698470820       27.3235145094       26.3124650041
  H        16.5590571622       26.8948342130       28.0200065555
  C        17.9888684591       28.4569047167       27.4955088602
  H        17.2869675472       29.2880743772       27.6605780420
  H        18.5462682618       28.3307154755       28.4357652371
  C        18.9720581763       28.8030165541       26.3660307665
  H        19.5527244201       29.7018790192       26.6212128684
  H        18.4080397777       29.0491242638       25.4535072773
  C        19.9274338728       27.6324006587       26.0679853744
  H        20.5938530901       27.8757591905       25.2266499696
  H        20.5736322876       27.4456581595       26.9391665833
  C        15.7956206020       22.1021829837       24.2066205501
  H        15.1895555516       21.3170954084       23.7297471259
  C        15.3367148809       22.2730859339       25.6634256092
  H        16.0179207303       22.9826173706       26.1594316645
  H        15.4299711569       21.3193849639       26.2021336768
  C        13.8901881733       22.7990592246       25.7298151860
  H        13.2076852658       22.0372036517       25.3225979041
  H        13.5958358377       22.9448854162       26.7799427562
  C        13.7264571801       24.1046374223       24.9349071378
  H        12.6790584180       24.4404520985       24.9626775876
  H        14.3195770307       24.8976985354       25.4152314146
  C        14.1987719286       23.9309470249       23.4825482032
  H        14.1361169786       24.8834968942       22.9357879644
  H        13.5280854633       23.2302730860       22.9610301845
  C        15.6423465564       23.4037697342       23.4196823888
  H        15.9630722619       23.2508402753       22.3784106139
  H        16.3332601381       24.1491615863       23.8464708026
 Au        22.6343273864       20.9246394535       19.9659532636
 Au        22.0068519185       18.2928824881       20.7452253200
 Au        21.7230033770       19.0268223353       18.0307352531
 Au        18.9648732089       17.8154112970       17.7287343810
 Au        20.6455222571       23.0966817309       19.6155890218
 Au        20.3782804145       18.8944624267       23.2159860601
 Au        20.9947297969       16.8511576893       15.2840328610
 Au        20.6829929176       15.7604185433       18.2783892794
 Au        23.4358821522       24.2040451417       20.7597148277
 Au        23.0956316069       15.2693386278       20.0825444702
 Au        18.5435231404       14.5521018715       16.5471884029
  S        21.5463387973       20.7762423163       24.0484506108
  S        19.0307934861       16.9971566852       22.7499589736
  S        22.4066994114       18.6845382281       15.7443724364
  S        23.5564056011       16.7474944496       21.8475363325
  S        24.6138518396       22.3278453605       19.9583021438
  S        22.3851158828       13.9680146566       18.2438498259
  S        19.6036766821       15.0963536626       14.5084918637
  S        22.5603656205       26.2584794250       21.5236828330
  C        24.0256749830       27.1989655568       22.1679194867
  H        24.6109893761       27.4062418177       21.2591229064
  C        24.8894737626       26.4095508700       23.1557526418
  H        24.2509782476       26.1107809643       24.0033750919
  H        25.2302047994       25.4779061436       22.6785534589
  C        26.0795334236       27.2493798959       23.6532462295
  H        26.7608018963       27.4537623736       22.8134025065
  H        26.6609633654       26.6698984544       24.3856164570
  C        25.6133575565       28.5796739967       24.2664879578
  H        26.4782193664       29.1840428926       24.5785573891
  H        25.0324739824       28.3740129131       25.1777705761
  C        24.7398738217       29.3675301166       23.2773035307
  H        24.3699649533       30.2940328744       23.7413129315
  H        25.3527358541       29.6778420732       22.4175902222
  C        23.5505359518       28.5248321080       22.7795781984
  H        22.9537916637       29.0880566584       22.0474827354
  H        22.8781668781       28.2913442717       23.6209157255
  C        23.3626998221       20.4015606518       23.9893236324
  H        23.5713626839       19.9621861356       23.0036965974
  C        23.6956788472       19.4010491872       25.1069991484
  H        23.3071942365       19.7989991449       26.0567873237
  H        23.1671568647       18.4544510028       24.9197038393
  C        25.2124038852       19.1597051935       25.2318735001
  H        25.5736971746       18.6269840982       24.3393584685
  H        25.4085218801       18.4918807523       26.0840668480
  C        25.9912296754       20.4753032813       25.3854448694
  H        25.7310913251       20.9425492968       26.3472720189
  H        27.0729803502       20.2763156088       25.4195880603
  C        25.6580096545       21.4493276212       24.2446818863
  H        26.1895081699       22.4029389825       24.3805417165
  H        26.0121152158       21.0356726944       23.2880564874
  C        24.1443512722       21.7114301671       24.1553600103
  H        23.9137080637       22.3881884409       23.3178018494
  H        23.8010553511       22.2175405088       25.0708803334
  C        20.0504327857       15.5521628873       23.3143371659
  H        21.0334621252       15.6472449455       22.8353451472
  C        19.3854758456       14.2490796739       22.8512518799
  H        18.3609884257       14.2073498368       23.2519020031
  H        19.2958236433       14.2511727016       21.7541299370
  C        20.1877782825       13.0265834510       23.3336181149
  H        21.1719378323       13.0265698501       22.8398649586
  H        19.6824928124       12.1015424803       23.0174204242
  C        20.3818743674       13.0419473203       24.8584270472
  H        20.9946146268       12.1845686070       25.1752393966
  H        19.4044622427       12.9227551317       25.3497937903
  C        21.0247576796       14.3595439083       25.3211564634
  H        21.1148943685       14.3814845998       26.4173367822
  H        22.0489114026       14.4250250729       24.9244693876
  C        20.2200899198       15.5811978971       24.8386614442
  H        20.7147051560       16.5186736084       25.1346051937
  H        19.2254652095       15.5869472868       25.3096897695
  C        21.5673509521       12.4779028059       18.9955521470
  H        20.7706897790       12.8464145386       19.6538901583
  C        22.5768261342       11.6582422337       19.8103340754
  H        23.4245906766       11.3916849524       19.1610202006
  H        22.9866187769       12.2834781943       20.6180893209
  C        21.9266211851       10.3814891790       20.3754482679
  H        21.1554206684       10.6636200885       21.1083623590
  H        22.6759609131        9.7951307997       20.9277430408
  C        21.2878058245        9.5323500791       19.2647384888
  H        20.7889821953        8.6510177754       19.6951954420
  H        22.0776810726        9.1478582777       18.6019973539
  C        20.2918158829       10.3614337725       18.4386142611
  H        19.8761046066        9.7606987727       17.6159587154
  H        19.4389724139       10.6496950824       19.0717262820
  C        20.9462675163       11.6353733400       17.8737704624
  H        20.2050364947       12.2402043449       17.3270639910
  H        21.7353809310       11.3618034180       17.1560384879
  C        24.8471340925       22.6990274868       18.1514984844
  H        23.8568395255       22.9438060874       17.7455514181
  C        25.3899400931       21.4496605222       17.4462476300
  H        26.3296694255       21.1420778736       17.9306974472
  H        24.6736751818       20.6239067010       17.5764153116
  C        25.6344309441       21.7288096239       15.9517822035
  H        24.6684350769       21.9209890089       15.4615347181
  H        26.0516783584       20.8322823961       15.4680254645
  C        26.5669988669       22.9331012643       15.7463627051
  H        26.6913278493       23.1420275014       14.6732011554
  H        27.5680082850       22.6885543485       16.1325817923
  C        26.0328251933       24.1769530974       16.4749144092
  H        26.7299238565       25.0205493710       16.3620245456
  H        25.0870268785       24.4925498415       16.0097185504
  C        25.7895704907       23.8959519147       17.9697922441
  H        25.3608127408       24.7770050099       18.4707000952
  H        26.7449609984       23.6800353719       18.4717482894
  C        25.2649894893       17.4163398236       21.5718881577
  H        25.2685909606       18.3405737328       22.1696419776
  C        25.5918685633       17.7700309473       20.1205558805
  H        25.4992697604       16.8542035936       19.5145828071
  H        24.8461040835       18.4831819773       19.7375376517
  C        27.0152043970       18.3430161934       20.0018432745
  H        27.0633494451       19.3083505734       20.5285940142
  H        27.2372761166       18.5609925193       18.9460666266
  C        28.0621993381       17.3799989777       20.5844060635
  H        29.0668449357       17.8256517843       20.5324309091
  H        28.0948186868       16.4674317936       19.9704193533
  C        27.7216960006       17.0008710182       22.0347375929
  H        28.4450776117       16.2685408385       22.4233151913
  H        27.8121597174       17.8918481591       22.6748164190
  C        26.2933434685       16.4347461702       22.1524763097
  H        26.0507492964       16.2100142290       23.2011093832
  H        26.2153305331       15.4856582997       21.5999655183
  C        20.7943515813       13.6958052740       14.2327850625
  H        21.3635005817       13.5719192107       15.1634820206
  C        21.7510860608       14.0516388635       13.0864961046
  H        21.1605927924       14.2824800124       12.1868947941
  H        22.3047855176       14.9675973848       13.3432790329
  C        22.7172364387       12.8887628787       12.7949308228
  H        23.3728942050       12.7367577418       13.6654636364
  H        23.3763355483       13.1545119019       11.9552019650
  C        21.9577770045       11.5868279148       12.4939555048
  H        22.6643561150       10.7589705711       12.3322408299
  H        21.3966964216       11.7032631353       11.5546342394
  C        20.9804205764       11.2420471316       13.6290078259
  H        20.4046549340       10.3378389569       13.3817658439
  H        21.5492031635       11.0055472348       14.5411214075
  C        20.0186813662       12.4084473384       13.9228319489
  H        19.3566096713       12.1662847277       14.7679548022
  H        19.3683516971       12.5855616473       13.0527260427
  C        24.1223638000       17.9842124969       15.7191301774
  H        24.7258856732       18.7762932858       16.1877012414
  C        24.5690421290       17.8120910062       14.2587026825
  H        23.8894454807       17.0948433289       13.7717048107
  H        24.4622961690       18.7629655318       13.7175099600
  C        26.0194705456       17.2985590985       14.1805731891
  H        26.6990560792       18.0678262834       14.5786027512
  H        26.3051713645       17.1514373667       13.1282482154
  C        26.2020999041       15.9974307754       14.9785390880
  H        27.2520338473       15.6705162802       14.9418861795
  H        25.6112100806       15.1975587021       14.5068021908
  C        25.7420145741       16.1724189406       16.4347044063
  H        25.8185957969       15.2226369224       16.9844694107
  H        26.4110827912       16.8812408764       16.9472120646
  C        24.2943532206       16.6867806166       16.5090880438
  H        23.9817519837       16.8406245819       17.5526687625
  H        23.6062256210       15.9338030106       16.0912222252
