508
Energy =  -2427.4026312663
 Au        23.6443541555       22.8822384888       24.3974949848
 Au        23.3384680279       25.1719797985       22.1773273582
 Au        25.5847289631       23.4392321174       22.0549487586
 Au        22.0007475349       20.6667587495       24.5474198664
 Au        23.3384172337       24.8179366991       26.4505524565
 Au        23.2477607091       27.0943466359       24.2299719630
 Au        21.1876223915       26.9542921291       22.1730188966
 Au        25.4628314331       25.0914504730       24.5926780426
 Au        23.4463677827       23.1774022021       20.1911295332
 Au        21.5836306104       22.5085105323       22.4391623793
 Au        25.5027935278       22.9318069759       26.4481869661
 Au        21.3336768103       24.9733725525       24.1764880584
 Au        25.2232446928       25.4822072723       20.1403623760
 Au        23.0318927564       27.5522842972       19.8476942025
 Au        23.9074441188       20.8809096828       22.3866777532
 Au        20.5894292156       27.3605569311       27.2933693387
 Au        25.4927816180       27.7208568549       22.2651647558
 Au        21.8651901073       19.8594963958       19.4061718131
 Au        26.3803489616       20.4738779793       19.5336441024
 Au        20.9029702244       24.8443094834       19.9185373348
 Au        23.9043459973       20.4009820186       26.8395906625
 Au        27.1909821624       23.7357023798       18.1754592044
 Au        26.3721206224       20.8380894751       24.2289304454
 Au        19.2163936021       28.6440793180       24.2219961508
 Au        21.1367527148       22.7228397601       26.8356385667
 Au        25.1811992624       28.1146769562       27.3338444938
 Au        20.6497063964       18.4089811838       22.5598659905
 Au        26.9522311211       25.1700026352       28.5109399944
  S        18.7460904206       28.5982865742       26.5237402550
  S        24.8795209626       19.2445404424       20.8502812215
  S        25.3220373661       19.1074731748       25.4616405657
  S        27.1181979050       26.3938976608       23.3618530217
  S        19.6211503685       23.5333406824       21.4155319963
  S        23.1187088837       21.5646111634       18.3996630189
  S        23.5512070531       28.8938319985       25.8415905934
  S        19.6618711333       24.2388891035       25.7910123598
  S        26.5267646070       25.9902108399       18.1473719666
  S        27.5300300821       22.0678143103       22.5792797283
  S        22.5031999276       21.5357033749       28.3627636806
  S        22.0455050329       26.0925956705       18.2588695686
  S        26.7831841444       27.4817633939       28.9410980319
  S        27.9485235459       21.5130657218       18.1254239142
  S        19.5771977375       28.7609719227       21.9026121418
  S        22.4214797291       26.2260035722       28.2160692660
  S        23.9879153296       29.2288587664       21.2268285952
  S        20.4663006346       18.8024240399       24.8719641371
  S        20.6291941683       18.0305737623       20.2356582455
  S        27.2731452062       22.8700219391       28.1255916647
  C        19.0169332706       30.3019499607       27.0387990451
  C        17.8853806033       31.0912647082       27.2721507724
  C        18.0268218217       32.4253680304       27.6736943974
  C        19.2895654804       33.0075122106       27.8567532830
  C        20.4126208303       32.1906013261       27.6229442044
  C        20.2893661722       30.8611487097       27.2216094184
  C        26.0003515316       27.5072740459       30.5599928499
  C        24.6959019422       27.9618680898       30.7691247292
  C        24.1622665488       27.9977350242       32.0631633472
  C        24.9026936729       27.5864484364       33.1801165226
  C        26.2197167175       27.1445692383       32.9480167660
  C        26.7673914881       27.1050479456       31.6667518889
  C        26.7419840950       22.0296138425       29.6138001460
  C        26.4227119980       22.7027973835       30.8003438790
  C        26.1408451887       21.9862747192       31.9690082504
  C        26.1634041967       20.5837191672       31.9995546577
  C        26.4702614234       19.9259562877       30.7931805697
  C        26.7568146211       20.6241890844       29.6204973177
  C        25.8687982552       18.0229054898       21.7090818730
  C        25.2451257344       16.8147434416       22.0617961353
  C        25.9832945660       15.7983336513       22.6699949261
  C        27.3560497451       15.9384683909       22.9482313656
  C        27.9580756077       17.1534443642       22.5871350509
  C        27.2334568711       18.1830884394       21.9785220580
  C        21.8282251611       25.2378636988       29.5817357734
  C        20.4790764067       25.2031511120       29.9672282544
  C        20.0987842414       24.5167411606       31.1199674948
  C        21.0310042905       23.8319431049       31.9214381159
  C        22.3711816450       23.8600541633       31.5058474197
  C        22.7714847367       24.5534111905       30.3597624892
  C        21.6153709041       16.5493239852       20.0028154452
  C        21.2948883044       15.3926316023       20.7332498490
  C        21.9709726223       14.1990325102       20.4847110966
  C        22.9797959157       14.1036877959       19.5069182180
  C        23.2866895427       15.2712511971       18.7937728069
  C        22.6205342951       16.4791244333       19.0328329792
  C        27.5715387131       20.9729125845       16.4503772195
  C        26.2784637951       20.6499781259       16.0153366565
  C        26.0716013347       20.2344509158       14.7007272747
  C        27.1290247118       20.1236776912       13.7769972032
  C        28.4142822198       20.4472552437       14.2353670198
  C        28.6394885637       20.8651161642       15.5529067096
  C        28.0265258013       26.8748118418       18.5794230759
  C        28.6436815996       26.7970795073       19.8366012122
  C        29.7921327134       27.5430917815       20.0993538833
  C        30.3741828508       28.3844302650       19.1308465208
  C        29.7472186533       28.4410466307       17.8770651257
  C        28.5884780746       27.7045779799       17.6008427927
  C        24.8989837618       30.2483349947       20.0656783142
  C        26.2441070742       30.0444823673       19.7317005925
  C        26.8853001584       30.9204475791       18.8560981831
  C        26.2228842624       32.0220722271       18.2838797533
  C        24.8755926492       32.2084142484       18.6305673214
  C        24.2181653843       31.3400442412       19.5085337438
  C        20.8617829346       27.1415248244       17.4119363967
  C        21.3022941511       27.7838574904       16.2461897964
  C        20.4245158572       28.5833949470       15.5061047785
  C        19.0890153162       28.7659577622       15.8974156719
  C        18.6696008023       28.1100841903       17.0695599606
  C        19.5321104362       27.3107473315       17.8193464010
  C        24.1998161326       30.3375399221       25.0121891124
  C        25.5468872954       30.7228098608       25.0730667649
  C        25.9618780411       31.9056462028       24.4628445037
  C        25.0685789948       32.7405414378       23.7664585458
  C        23.7269094185       32.3324185072       23.7105150566
  C        23.2911355417       31.1527229143       24.3225430335
  C        22.1206692455       22.3004321723       17.1123981429
  C        22.7748996203       23.1055002452       16.1691957483
  C        22.0625645134       23.6596521810       15.1006933465
  C        20.6881123262       23.4305957536       14.9333759733
  C        20.0532708633       22.6211817714       15.8934531321
  C        20.7456910490       22.0657028097       16.9684649144
  C        28.8606913738       23.0174191441       23.2912055494
  C        29.7268895915       23.6695674151       22.3959563463
  C        30.8537033422       24.3353605556       22.8743058691
  C        31.1622667681       24.3861125146       24.2472718819
  C        30.2796017710       23.7366186222       25.1236833858
  C        29.1457514380       23.0599363932       24.6599695827
  C        28.0352106244       27.5303973169       24.3949619891
  C        28.4647706818       27.1495210125       25.6706845872
  C        29.2817307057       27.9990306475       26.4251455553
  C        29.7014319357       29.2460962865       25.9390142345
  C        29.2722957431       29.6033822694       24.6463919764
  C        28.4551128326       28.7703615154       23.8833874009
  C        18.2987626471       23.3673869359       25.0394709127
  C        17.2765733936       24.1415156925       24.4706749578
  C        16.1085383148       23.5326502337       24.0017347448
  C        15.9152586891       22.1442831879       24.0820036113
  C        16.9640138481       21.3844487137       24.6332314537
  C        18.1365234025       21.9756283136       25.1041176856
  C        21.3044490993       17.4450588554       25.6849788914
  C        20.8676866757       17.1139609783       26.9777739537
  C        21.4213606549       16.0221992783       27.6452183129
  C        22.4233180895       15.2237167274       27.0653336760
  C        22.8646441456       15.5880306160       25.7828820593
  C        22.3197698254       16.6797030447       25.0983917509
  C        26.5448965970       18.3835712752       26.5503572284
  C        26.1185049205       17.4467743053       27.5082644195
  C        27.0530985604       16.7911756536       28.3084063330
  C        28.4364626480       17.0305526287       28.1911169281
  C        28.8395951835       17.9659959339       27.2267736415
  C        27.9149174844       18.6343004998       26.4155378750
  C        18.0384146694       28.1403294074       21.2195207332
  C        17.2378979837       29.0424103018       20.5072235945
  C        16.0322448288       28.6192224959       19.9336237565
  C        15.5913220366       27.2916761369       20.0415416331
  C        16.4122268615       26.4022774687       20.7622595090
  C        17.6115235892       26.8102421134       21.3449824320
  C        18.6973826734       22.4086448314       20.3758881591
  C        17.9733032561       22.9073736882       19.2787360482
  C        17.1511191178       22.0595903611       18.5384069862
  C        17.0181016629       20.6922021778       18.8491066888
  C        17.7436062001       20.2172436366       19.9511809898
  C        18.5682612302       21.0567010597       20.7091460062
  C        26.8441553681       19.6645776360       12.3394333541
  C        25.8586130805       20.6547968376       11.6721805753
  C        26.2098385229       18.2526961589       12.3674556537
  C        19.4830690526       34.4680554151       28.2901947836
  C        20.2724364484       34.5086807247       29.6212521201
  C        18.1431275477       35.1986547029       28.5010221560
  C        20.2807675913       35.2233382884       27.1990312337
  C        25.5784702603       34.0351748445       23.1168570693
  C        26.1299800241       34.9735175866       24.2180965309
  C        24.4681522023       34.7829481816       22.3539454315
  C        26.7099840150       33.6997593452       22.1150344604
  C        16.1154443194       19.7924124719       17.9928086643
  C        14.6634776148       20.3275529193       18.0403017883
  C        16.1109836009       18.3329661920       18.4864898118
  C        16.6185188750       19.8071497534       16.5284815211
  C        24.3348750655       27.5896996554       34.6068801032
  C        25.2039268046       28.5016490503       35.5064222566
  C        24.3578608716       26.1462241975       35.1668541712
  C        22.8827277843       28.1018654302       34.6568405017
  C        20.5623849465       23.1063971232       33.1911788184
  C        19.4874015392       22.0561975630       32.8224397096
  C        19.9543696107       24.1386533932       34.1721825447
  C        21.7158905584       22.3789199437       33.9077746169
  C        24.3819740228       12.3062968775       20.5724763512
  C        28.1360199632       14.7836286107       23.5942411073
  C        28.1424685698       13.5729071069       22.6291731285
  C        27.4565279622       14.3745741725       24.9225731410
  C        29.5968460983       15.1656756264       23.9025221829
  C        25.8930649039       19.7690069700       33.2733337471
  C        24.6965498582       18.8155084732       33.0379571464
  C        25.5651301550       20.6642406638       34.4835942273
  C        27.1499163585       18.9325361990       33.6180202182
  C        26.9761617987       32.9511503966       17.3206458972
  C        27.4504197208       32.1354125797       16.0930736352
  C        28.2077146370       33.5520145232       18.0410137654
  C        26.0967891845       34.1128071418       16.8196004379
  C        30.5721001945       30.2115945172       26.7560501169
  C        31.8807412753       30.5085804406       25.9844448330
  C        30.9421145884       29.6356449342       28.1364044822
  C        29.7959660224       31.5336097668       26.9751923989
  C        23.6903757196       12.7639273700       19.2653889690
  C        32.4286482922       25.1134599276       24.7215626910
  C        14.6207449408       21.4533384720       23.6282478350
  C        32.4150795369       26.5734849720       24.2078400216
  C        33.6714287254       24.3837827272       24.1548712897
  H        16.8933442387       30.6654459356       27.1381007362
  H        17.1266434977       33.0093623681       27.8447625831
  H        21.4142883470       32.5969834885       27.7518256831
  H        21.1767516650       30.2542909421       27.0450735516
  H        24.0900297574       28.2691252236       29.9180698175
  H        23.1395329275       28.3448555055       32.1825082905
  H        26.8366961065       26.8204544696       33.7841807734
  H        27.7873906327       26.7555133816       31.5194854260
  H        26.4098013443       23.7925686533       30.8133635221
  H        25.9093024453       22.5494835739       32.8694601487
  H        26.5014663305       18.8383347169       30.7580070405
  H        27.0027686114       20.0768717561       28.7129060297
  H        24.1908832581       16.6638215497       21.8346078606
  H        25.4723570816       14.8695920422       22.9186470534
  H        29.0161095385       17.3151964910       22.7744914124
  H        27.7303577503       19.1105165822       21.6993417323
  H        19.7371867002       25.7232137300       29.3623233980
  H        19.0456235636       24.5178472615       31.3954674279
  H        23.1340129692       23.3337366860       32.0735939652
  H        23.8212552973       24.5615001760       30.0704740872
  H        20.5207284948       15.4340910059       21.4974871168
  H        21.7006562433       13.3220721324       21.0702537664
  H        24.0657157316       15.2597410184       18.0362576255
  H        22.8898666788       17.3734238111       18.4726659214
  H        25.4407701798       20.7277505964       16.7074560473
  H        25.0557564651       19.9939120788       14.3919551278
  H        29.2667894947       20.3754091595       13.5655158462
  H        29.6474072934       21.1081184255       15.8822162552
  H        28.2186240529       26.1604130007       20.6104874773
  H        30.2376739675       27.4639507584       21.0900144525
  C        31.6382464334       29.1872135626       19.4717603423
  H        30.1572207899       29.0683584983       17.0896733467
  H        28.1199260520       27.7746049261       16.6214787280
  H        26.7831173990       29.1951008027       20.1492243500
  H        27.9275432483       30.7231626784       18.6125383325
  H        23.1728098742       31.5086111588       19.7595340434
  H        22.3329905046       27.6609622602       15.9194995002
  H        20.8019462639       29.0672312360       14.6091965620
  C        18.0984324324       29.6393914084       15.1136833802
  H        17.6467397850       28.2249782239       17.4232668421
  H        19.1778844109       26.8245413146       18.7272735457
  H        26.2636775842       30.0935113293       25.5984048970
  H        27.0138690535       32.1768883429       24.5340199170
  H        22.9936823833       32.9371974705       23.1838929722
  H        22.2420691349       30.8663168177       24.2642704834
  H        23.8416037972       23.2997350485       16.2697283213
  H        22.6033063025       24.2797141433       14.3908794035
  C        19.8771744999       24.0138838307       13.7672034665
  H        18.9875245590       22.4153111490       15.8106942652
  H        20.2242554226       21.4495223022       17.6995421702
  H        29.5193836152       23.6450927456       21.3272140248
  H        31.5088442460       24.8212363184       22.1533878397
  H        30.4635044141       23.7470043698       26.1949587433
  H        28.4819802635       22.5598461148       25.3641559914
  H        28.1554775617       26.1887041617       26.0826984140
  H        29.5759357704       27.6711007954       27.4185919174
  H        29.5731028661       30.5597451182       24.2212096995
  H        28.1275234297       29.0829831860       22.8930519776
  H        17.3870803723       25.2231613113       24.4090795606
  H        15.3356653445       24.1687106807       23.5782546810
  H        16.8705810244       20.3022680692       24.7071308702
  H        18.9276504217       21.3606214867       25.5312947581
  H        20.0958151448       17.7098601288       27.4601842062
  H        21.0540704692       15.7922576039       28.6436699792
  C        22.9659075560       14.0049649100       27.8270995312
  H        23.6504280489       15.0192843887       25.2922958236
  H        22.6845019641       16.9376061782       24.1056597524
  H        25.0558219076       17.2350139009       27.6186701846
  H        26.6915247022       16.0698965479       29.0401507447
  C        29.4267187028       16.2784864574       29.0921948209
  H        29.8940542941       18.1947050373       27.0959650673
  H        28.2550362439       19.3580488591       25.6750013189
  H        17.5568157104       30.0772236463       20.4018574523
  H        15.4352306496       29.3502720468       19.3943651787
  C        14.2794485115       26.7912249113       19.4193973278
  H        16.1174599271       25.3600257417       20.8755284328
  H        18.2236999035       26.0943397368       21.8904421468
  H        18.0666908436       23.9567105591       19.0038706766
  H        16.6062996692       22.4783472256       17.6935502897
  H        17.6844322302       19.1704225814       20.2367119580
  H        19.1139217320       20.6540967044       21.5632025743
  C        28.1215816610       19.6026634230       11.4803000186
  H        24.9101222260       20.7175033497       12.2214970094
  H        25.6314891677       20.3344216338       10.6459408565
  H        26.2871565557       21.6652297958       11.6278339681
  H        25.2698841703       18.2400799998       12.9344272236
  H        26.8903053722       17.5253631711       12.8305988210
  H        25.9895982934       17.9126139637       11.3460713533
  H        21.2584188495       34.0357959921       29.5245174737
  H        19.7266325709       33.9852209883       30.4178878626
  H        20.4293815204       35.5482751207       29.9406141372
  H        17.5450364695       35.2303598891       27.5799596718
  H        18.3324983893       36.2359155595       28.8077139758
  H        17.5389500437       34.7264006237       29.2878031978
  H        19.7379715375       35.2213957181       26.2440584787
  H        21.2647423716       34.7683319756       27.0254368420
  H        20.4420535162       36.2682260295       27.4983714668
  H        26.5161019821       35.9012205828       23.7732182145
  H        26.9490032956       34.5033586981       24.7782414375
  H        25.3439542693       35.2411130946       24.9373226160
  H        24.0533555873       34.1716221940       21.5405235212
  H        24.8799072373       35.6971201856       21.9059879209
  H        23.6449377229       35.0829368812       23.0166733653
  H        26.3501628882       33.0318752905       21.3199934911
  H        27.5580084681       33.2079018740       22.6089677406
  H        27.0871052031       34.6202200133       21.6475374076
  H        14.5956412552       21.3569903806       17.6644491771
  H        14.2754104194       20.3194023517       19.0682728961
  H        14.0051256710       19.7016630833       17.4219834985
  H        15.4594692438       17.7277437101       17.8423893968
  H        15.7293061527       18.2510415036       19.5135609370
  H        17.1151600396       17.8879435098       18.4567172664
  H        16.5990380218       20.8187356398       16.1016916376
  H        15.9828720094       19.1684786687       15.8996182176
  H        17.6495753503       19.4335699994       16.4630670803
  H        26.2483124358       28.1650427542       35.5412701287
  H        24.8183817385       28.5026081219       36.5353944602
  H        25.1977748738       29.5366882190       35.1386647458
  H        23.7443265249       25.4778029963       34.5463766838
  H        23.9590039006       26.1265293769       36.1905366298
  H        25.3762499061       25.7372399267       35.1970050994
  H        22.2069445008       27.4740604297       34.0593833349
  H        22.8011253567       29.1358617053       34.2947482113
  H        22.5215735539       28.0856296611       35.6936768527
  H        19.8887741829       21.3077812555       32.1253483301
  H        18.6122820355       22.5188827333       32.3479544863
  H        19.1388684347       21.5353407481       33.7252780311
  H        19.1018677120       24.6674088189       33.7260632110
  H        20.6996689224       24.8919073048       34.4636540086
  H        19.5996461594       23.6386815029       35.0842633071
  H        22.1759289990       21.6162696601       33.2639370878
  H        21.3336046550       21.8723464343       34.8039186262
  H        22.5009638011       23.0759721609       34.2329913521
  H        24.8865375400       11.3420313746       20.4210009355
  H        23.6621857303       12.1815967949       21.3919526406
  H        25.1350849121       13.0403806122       20.8915473800
  H        28.6255967265       13.8312069190       21.6771183600
  H        27.1239682392       13.2280808569       22.4055555624
  H        28.6914435620       12.7310065675       23.0736844437
  H        26.4255772904       14.0327063237       24.7632675328
  H        27.4289534544       15.2164844515       25.6281497506
  H        28.0083665806       13.5488875083       25.3932283207
  H        30.1563816260       15.4201997225       22.9921242255
  H        30.1075976832       14.3156948443       24.3744520348
  H        29.6549788448       16.0172974003       24.5946851524
  H        23.7828265231       19.3794187969       32.8041143481
  H        24.5056589182       18.2135877709       33.9372820929
  H        24.8866661372       18.1229647906       32.2072983039
  H        24.6630271152       21.2687141033       34.3148812429
  H        26.3944935840       21.3425462253       34.7261768566
  H        25.3824988751       20.0379828629       35.3669582489
  H        27.4136488324       18.2403030122       32.8074583393
  H        26.9762801362       18.3372055836       34.5251669306
  H        28.0166528219       19.5829538925       33.7976602157
  H        28.0057676250       32.7792423581       15.3970387913
  H        26.5957677489       31.7055980950       15.5532646824
  H        28.1103608843       31.3082031599       16.3866532487
  H        28.7612108696       34.2150996392       17.3618632170
  H        28.8996702231       32.7712814383       18.3837902222
  H        27.9032381350       34.1378433796       18.9192844636
  H        26.6781449073       34.7500734617       16.1400732811
  H        25.7447109490       34.7450986180       17.6462947096
  H        25.2199002924       33.7524441163       16.2644441018
  H        31.6828083356       30.9584851595       25.0026439543
  H        32.4585404517       29.5884729918       25.8207215860
  H        32.5076709091       31.2096127909       26.5526850502
  H        31.5220111660       28.7064348661       28.0487589726
  H        30.0507749818       29.4293461322       28.7449679822
  H        31.5588575650       30.3598343865       28.6848706565
  H        29.5427016000       32.0185583959       26.0230801794
  H        30.4020468621       32.2404605396       27.5587079290
  H        28.8595506122       31.3538089185       27.5208412407
  C        13.6233165135       22.4400496651       22.9914034329
  C        13.9420221123       20.8019235858       24.8586555148
  C        14.9462547660       20.3577778918       22.5857781938
  H        33.3131431602       27.1045442173       24.5531237372
  H        31.5314869484       27.1141697252       24.5742211689
  H        32.4090135946       26.6189491338       23.1106219322
  H        33.6585513222       24.3567891591       23.0572434869
  H        33.7169931989       23.3468497618       24.5144491874
  H        34.5923156125       24.8950517346       24.4683331493
  H        27.8676417297       19.2713931019       10.4646227805
  H        28.8538441532       18.8914234780       11.8865181275
  H        28.6060496733       20.5851362938       11.3960774599
  C        32.5422117817       25.1463854280       26.2578307933
  H        33.4542730551       25.6844320927       26.5485136706
  H        32.6053909641       24.1371280528       26.6869102595
  H        31.6880731441       25.6636127366       26.7168161256
  C        24.7615574174       12.8610898455       18.1624605668
  H        24.3283445427       13.1554903370       17.1967747970
  H        25.2395546494       11.8820983848       18.0252372019
  H        25.5499311523       13.5815042899       18.4205100025
  C        22.6480234392       11.7015653362       18.8392590147
  H        21.8746150536       11.5590330699       19.6053138995
  H        23.1370518014       10.7317547336       18.6727425615
  H        22.1460151764       11.9953414755       17.9074659027
  C        30.8877459079       16.6842268867       28.8199895427
  C        29.2904940757       14.7563819093       28.8434853204
  C        29.1074931644       16.5844595975       30.5757540549
  H        29.1938918511       17.6598280371       30.7835307095
  H        29.8070507158       16.0514727614       31.2344375533
  H        28.0912464611       16.2685510774       30.8463567513
  H        29.5168798797       14.5069225895       27.7977182348
  H        28.2762160781       14.3967556000       29.0609920796
  H        29.9875127555       14.2014327788       29.4865434253
  H        31.1883907149       16.4621766360       27.7868393603
  H        31.5563097422       16.1225090707       29.4857240403
  H        31.0572268187       17.7535719867       29.0064761733
  H        13.0156749850       20.2917560652       24.5598748748
  H        13.6881365557       21.5573274582       25.6146175729
  H        14.5966001280       20.0592987371       25.3335725649
  H        14.0232482262       19.8560147862       22.2635155715
  H        15.6159159760       19.5900366783       22.9949056369
  H        15.4349351640       20.7867298619       21.7004844412
  H        12.7185456713       21.9008934679       22.6806615892
  H        14.0437439776       22.9232384704       22.0982564545
  H        13.3137017756       23.2246859638       23.6950813056
  C        18.7332154021       30.2586139456       13.8538386864
  C        17.6024392573       30.7897043349       16.0237204980
  C        16.8887611833       28.7790991340       14.6740180398
  H        17.2088623170       27.9516243881       14.0259013549
  H        16.1671605814       29.3918376525       14.1161968044
  H        16.3639637087       28.3449286038       15.5353605243
  H        18.4387573636       31.4259563602       16.3435782854
  H        17.1085330010       30.4078385743       16.9271324801
  H        16.8803764801       31.4191218873       15.4853500485
  H        19.5814049677       30.9113836020       14.1017681260
  H        17.9887042427       30.8706293898       13.3275693651
  H        19.0845269896       29.4891815135       13.1526147252
  C        32.1135124295       30.0598947103       18.2941721214
  C        32.7810947455       28.2104715388       19.8414713232
  C        31.3494610331       30.1149209225       20.6774555494
  H        32.3668303606       29.4556061770       17.4122844332
  H        33.0160526218       30.6134558393       18.5854631502
  H        31.3550789303       30.7982910694       17.9985067634
  H        30.5470180379       30.8278236624       20.4418705285
  H        32.2487093888       30.6892283036       20.9402093626
  H        31.0434169841       29.5468266272       21.5660919509
  H        33.0122703772       27.5401938811       19.0026187760
  H        32.5177423701       27.5875835978       20.7068034853
  H        33.6934185558       28.7674174652       20.0960986209
  C        24.0918621754       13.2872383211       27.0593685489
  C        21.8120699139       12.9972259408       28.0543243227
  C        23.5258602499       14.4500683414       29.1998684491
  H        23.7450585081       12.9051187694       26.0895590572
  H        24.4477577408       12.4276047688       27.6426808280
  H        24.9517643030       13.9477324497       26.8811966478
  H        21.3978262420       12.6531176744       27.0969835497
  H        20.9917770324       13.4434836152       28.6317494479
  H        22.1731077229       12.1182839719       28.6063101104
  H        24.3574953708       15.1574010956       29.0742343474
  H        23.8988557557       13.5812340090       29.7596084165
  H        22.7604775842       14.9407432579       29.8155594891
  C        13.5325066689       27.9012463371       18.6552375250