470
Energy =  -2728.8948404239
  C        16.7488724817       11.0294631223       27.4464119199
 Au        19.6909779133       19.2346167016       22.8273223900
 Au        20.5341717508       20.0036411009       20.1305407461
 Au        20.6963387738       22.8984252817       20.3524617525
 Au        22.4502328972       21.2119995811       18.3382728145
 Au        25.2341634231       19.7881963471       22.1518905610
 Au        18.3444908982       21.4061716641       21.5500444276
 Au        22.8970649090       21.3150711928       21.2429690844
 Au        20.7608788723       21.9167920416       23.1387300577
 Au        18.4988710818       21.1466087851       24.7181611173
 Au        18.0443713595       18.6033154435       20.4622466119
 Au        23.1989178913       18.7777061275       19.9731169546
 Au        22.5895879928       18.8720752204       22.8205789783
 Au        23.5094114845       21.4072908909       24.0189781194
 Au        25.2231920454       22.8195233119       22.0842359591
 Au        20.7937327398       17.2583504538       21.1057650389
 Au        20.9574707784       16.8809034923       24.0783438636
 Au        23.5076262211       23.5793762222       19.5717614399
 Au        19.5267529009       19.5211384860       17.3319416854
 Au        16.8249005286       19.4302818140       23.1249924749
 Au        25.2087396059       20.9881160384       19.5280752559
 Au        21.1763144856       19.8295901693       25.1940093940
 Au        15.4001038783       16.9801786220       21.2107177856
 Au        22.6131572043       23.9853660317       22.4503480380
 Au        21.4201637860       24.3560275700       17.3852947410
 Au        18.7261927731       18.1816757143       25.3376666219
 Au        18.2821322997       15.3843273514       19.7967099391
 Au        15.6994328082       22.3450165191       23.5037946391
 Au        24.5926941387       22.8365536336       16.6878595880
 Au        18.2768398983       16.7300381490       22.6493001828
 Au        18.9216463557       14.9301670191       25.5007841630
 Au        19.9865070834       24.3331195140       24.7698956448
 Au        24.8692500971       26.0103379413       21.6706566266
 Au        24.9890260560       24.3591278343       24.8362786171
 Au        26.4635321649       18.0217674554       19.7415117400
 Au        20.9320240310       17.1930051275       27.3660849609
 Au        15.9739842249       20.0068822602       26.2260100840
 Au        27.9342057128       21.0560692253       21.0148924530
 Au        24.4980952438       16.8465068709       23.9937181063
  S        20.6343686727       15.3125065616       19.6328091600
  S        15.9289922783       15.2993720660       19.6387621582
  S        21.8939940624       19.3481738988       27.4895714335
  S        17.4847174643       18.6025683220       18.0721116228
  S        24.4150351505       22.4226169248       26.0516921546
  S        19.5223497111       24.3668733797       18.7852539109
  S        21.4615487620       25.7925324468       23.6503710596
  S        21.4438173554       20.3876876444       16.2609106420
  S        26.2783306335       21.3292048126       17.3642257839
  S        16.4652962749       22.9725171995       21.3618088752
  S        28.5654383958       18.8678765316       20.4043628833
  S        14.9081790154       22.0404469728       25.7026301419
  S        14.6029683102       18.4868621043       22.8361905042
  S        18.3972736593       23.1934063263       26.0837894497
  S        16.9119274850       17.9709881330       26.9377743239
  S        25.7481346964       26.3534172594       23.8329024103
  S        24.2553552744       25.8919092832       19.3994236389
  S        23.1523079287       24.4772395949       15.7915813739
  S        20.3464502689       14.9099260114       27.3844812209
  S        26.4306917797       18.0670390936       23.4278907414
  S        17.4490037845       14.6869883077       23.6791974629
  S        22.7945988067       15.3597793261       24.6629135711
  S        24.4962964759       16.9388280844       19.0287340434
  C        20.3945306063       26.6665608461       22.4181770489
  H        20.0291952193       25.9438477280       21.6795548912
  H        19.5353814732       27.0646165285       22.9723734387
  C        15.8057346409       15.1265603380       24.3954089650
  H        15.9019939342       16.0823290289       24.9214187329
  H        15.1400372054       15.2794515182       23.5323814052
  C        21.1769965367       27.8067311370       21.7443944406
  H        22.0424213928       27.3867693993       21.2104279172
  H        21.5725245511       28.4741310754       22.5234524759
  C        20.2965495895       28.5868122633       20.7914280642
  C        15.4726461863       13.7330669006       20.5071095950
  H        15.8776867685       13.7608692299       21.5251898513
  H        14.3766723875       13.7260435563       20.5676459486
  C        23.7429271967       19.3907319642       15.0586207767
  H        24.3633119261       19.8665365802       15.8325447236
  H        23.5264319346       20.1700985891       14.3147871826
  C        16.5479888084       18.3892962772       29.7065900659
  H        15.7430394950       19.0734035876       29.3990871473
  H        17.0142921697       18.8342253537       30.5995079346
  C        25.8998045794       25.8538729986       18.5629957324
  H        26.4981480087       25.0518791578       19.0084980821
  H        25.6978160309       25.5932808234       17.5142644895
  C        29.4537859204       19.0946626077       18.8003872367
  H        28.8076385043       19.6559976588       18.1173887088
  H        30.3397055603       19.7036415214       19.0233540261
  S        27.5527335681       23.3133999932       21.5831010695
  C        27.9631415225       27.1829471642       17.9728195148
  C        26.6224897005       27.2066257076       18.6755359196
  H        25.9888279738       27.9996145997       18.2556206587
  H        26.7573857836       27.4382638525       19.7437456451
  C        30.4901788950       17.9340629758       16.8290450601
  C        29.8424959426       17.7407436119       18.1829793716
  H        28.9380122123       17.1218821891       18.0878883970
  H        30.5188468316       17.2053617528       18.8632106510
  C        29.7045705167       18.0024504715       15.6664572095
  H        28.6250843342       17.8712666203       15.7412493967
  C        32.4700228395       18.3205284101       15.4596116787
  H        33.5488721786       18.4389819579       15.3842751322
  C        31.6763685058       18.3900471730       14.3102289861
  H        32.1338859530       18.5647192582       13.3388180641
  C        30.2910861432       18.2276814615       14.4170146901
  H        29.6652765039       18.2712474972       13.5277996431
  C        28.7377320893       22.2349772753       16.3445044674
  H        29.6779784934       22.7410187715       16.6190793955
  H        28.9875823573       21.1755055751       16.1903152311
  C        28.2123624483       22.8280823531       15.0556364656
  C        27.7975969606       22.3707482884       17.5563073969
  H        27.5012587495       23.4117957072       17.7166661837
  H        28.2936450380       22.0155888489       18.4728886022
  C        28.2004874503       24.2190688076       14.8632090725
  H        28.5792142564       24.8758824908       15.6464132569
  C        27.2504586955       22.5544514940       12.8330412843
  H        26.8830608845       21.8997915914       12.0452480492
  C        24.7328583372       27.7063932177       24.5751042546
  H        23.6697515573       27.4671718990       24.4551685447
  H        24.9684461985       27.7058514768       25.6469892569
  C        17.5773720871       23.5961576229       29.3784849731
  C        18.1761600829       24.3110921448       30.4289503411
  H        19.1385246287       23.9807692450       30.8181603106
  C        19.2843653889       22.7757918393       27.6538555592
  H        19.9717083261       21.9463901415       27.4494489212
  H        19.8696729996       23.6579528662       27.9391799215
  C        16.3329647879       24.0321125251       28.8975540921
  H        15.8562215778       23.4910094387       28.0810530951
  C        18.2854584608       22.4058190523       28.7690595399
  H        17.5516822385       21.6871809960       28.3701350911
  H        18.8517088699       21.8801340840       29.5539878634
  C        11.3316500980       18.7444173707       22.2271214696
  C        11.0873470920       17.3815563088       22.4498730866
  H        11.6621364408       16.6421305990       21.8940121288
  C        13.6616803499       19.7557335640       21.8810220161
  H        13.4364400748       20.5521134852       22.6047752444
  H        14.3246629708       20.1826748744       21.1216572574
  C        12.3805361756       19.2002252240       21.2385612064
  H        12.6507279059       18.3719013557       20.5674516355
  H        11.9707492514       20.0006853383       20.6011959703
  C        17.6202682688       18.3599737096       28.5993921612
  H        18.3751340328       17.5840257231       28.7903397548
  H        18.1403210742       19.3212839599       28.5348121429
  C        15.9943285051       12.4984635798       19.7528566000
  H        15.5907679652       12.4896206814       18.7310610859
  H        17.0884654319       12.5829891214       19.6643446704
  C        15.6221620801       11.2223548233       20.4775534338
  C        20.9182821755       15.8961841692       17.9036401805
  H        20.4632748907       16.8888955724       17.7832439933
  H        22.0062008049       16.0107019340       17.8006101407
  C        21.6858168351       15.1214021910       14.7165208704
  H        22.4617864229       14.4989955060       15.1598132060
  C        20.5298333519       15.4126140455       15.4572780375
  C        21.8559690588       15.6225958453       13.4224050827
  H        22.7670540479       15.3988267829       12.8714058355
  C        20.3590191985       14.9015315764       16.8717177741
  H        20.8584224665       13.9297496238       16.9913695006
  H        19.2915700710       14.7418068918       17.0871417724
  C        19.5451224221       16.2246292533       14.8709146902
  H        18.6463108776       16.4662591608       15.4374438454
  C        24.5182755852       18.2731055752       14.3923131975
  C        23.6924054271       18.9213198196       27.4267197719
  C        17.5533267029       25.4328749920       30.9843745944
  H        18.0320313212       25.9703274972       31.8001400550
  C        16.3138431269       25.8585984072       30.4959983758
  H        15.8242262050       26.7283752178       30.9287725522
  C        15.7066264090       25.1537937710       29.4521135425
  H        14.7392036479       25.4744085846       29.0701166858
  C        15.8391007247       25.9774948749       24.2392578491
  H        16.9206408938       26.0992455149       24.3061756686
  C        15.0732050778       26.0183659533       25.4064617115
  H        15.5628209327       26.1672608973       26.3671623178
  C        17.1522868670       24.6639239238       21.6455541144
  H        17.7763048081       24.6399161186       22.5475643297
  H        17.8126831911       24.8495370704       20.7874112346
  C        15.2382675670       25.7714009422       22.9862218139
  C        16.0705626982       25.7542703472       21.7220890233
  H        16.5943345502       26.7212070310       21.6260792036
  H        15.4116893515       25.6763102467       20.8459863042
  C        13.8454291107       25.6088285713       22.9355586390
  H        13.3648730317       25.4456410308       21.9719568970
  C        13.6842882222       25.8620583287       25.3401421659
  H        13.0853566036       25.9038737355       26.2479687429
  C        19.5033374273       29.6483334196       21.2577301792
  H        19.5533048555       29.9285108044       22.3093945751
  C        24.3185912853       30.1998187967       24.5542822199
  C        25.0925064154       29.0566243048       23.9312368252
  H        24.8844741432       29.0027942838       22.8529189334
  H        26.1735785318       29.2288215129       24.0368808397
  C        22.5183877464       31.8413716367       24.4594421863
  H        21.6956668323       32.2974949719       23.9126807106
  C        24.6440530620       30.6719134730       25.8366086539
  H        25.4788396870       30.2246274896       26.3745696890
  C        23.2478946279       30.8004010333       23.8748785587
  H        22.9914741543       30.4554056180       22.8739864408
  C        30.2828644094       26.4381434644       17.8754219804
  H        31.1129875902       25.8938279485       18.3222313807
  C        30.4593591481       27.1041821158       16.6572900813
  H        31.4224091984       27.0765480063       16.1520020780
  C        28.1525134801       27.8434080921       16.7492833533
  H        27.3223039403       28.3940730951       16.3093550930
  C        29.0459895277       26.4778225161       18.5255545990
  H        28.9138636915       25.9595561761       19.4754723154
  C        29.3896303884       27.8081401336       16.0963716081
  H        29.5184453706       28.3320524473       15.1514145933
  C         9.3919901915       17.9140297347       24.0974052250
  H         8.6417020249       17.5950659091       24.8179833421
  C        10.5871450353       19.6851163188       22.9582735077
  H        10.7598807129       20.7479112097       22.7922006578
  C         9.6286296400       19.2775091915       23.8895394101
  H         9.0712930771       20.0201540003       24.4571788893
  C        10.1227489163       16.9666975112       23.3747464157
  H         9.9494635477       15.9046571691       23.5349482233
  C        11.0520692469       21.3429919113       27.1166539955
  C        13.1024745607       21.6566827133       25.6388277451
  H        12.6433792516       22.4909170666       25.0931296984
  H        12.9297261274       20.7325721326       25.0764907274
  C        12.5512529475       21.5569161648       27.0720549127
  H        13.0615615124       20.7339109711       27.5925215737
  H        12.8114134636       22.4784671541       27.6142868399
  C        31.8793581964       18.0952362421       16.7073441747
  H        32.5014558675       18.0385531319       17.5995255953
  C        29.9224190235       24.0772868170       22.8898477298
  H        29.8997739558       24.9780987209       22.2607104248
  H        30.3390323556       24.3851986349       23.8630406058
  C        30.8275403148       23.0379235427       22.2660766981
  C        28.4780439588       23.6111516112       23.1552368636
  H        27.9200585939       24.3953740524       23.6844504542
  H        28.4532555007       22.7058739571       23.7702670702
  C        31.2863906794       21.9457470533       23.0204456717
  H        30.9934684764       21.8528172046       24.0662760475
  C        32.0551636663       22.1697174161       20.3458468009
  H        32.3549413202       22.2659915915       19.3040684515
  C        31.2234979579       23.1351937451       20.9237484553
  H        30.8744076430       23.9771852544       20.3271005347
  C        32.5020247687       21.0854769344       21.1065757900
  H        33.1533854540       20.3355424243       20.6622772196
  C        32.1136286766       20.9766822049       22.4464631885
  H        32.4609163058       20.1390419148       23.0480269384
  C        24.2112295429       23.4009843118       29.2161941659
  C        22.9450438719       22.9664453706       27.0239912444
  H        22.2081286070       23.4017473050       26.3345244086
  H        22.5148337429       22.0423005618       27.4321896100
  C        25.4862976399       23.9425081410       29.4362807693
  H        25.8252828880       24.7680199903       28.8120672524
  C        23.3029149479       23.9576236479       28.1406343572
  H        23.7588771669       24.8526103089       27.6930658794
  H        22.3539948583       24.2851911239       28.5984319696
  C        22.3886942291       23.7034748097       14.2971945487
  H        21.8342812975       22.8116235935       14.6104492898
  H        21.6717558035       24.4443241712       13.9197365563
  C        23.4452343256       23.3649776798       13.2364461765
  H        24.1389166527       22.6195609756       13.6581339922
  H        24.0548333966       24.2530338722       13.0210407454
  C        26.6031885455       14.3404793629       19.8966214312
  C        29.4122499556       14.3635255373       20.1726379128
  H        30.4948603721       14.3668886806       20.2814245234
  C        24.3118289673       15.5172270034       20.1940415598
  H        24.5856815953       15.8507560560       21.2031094733
  H        23.2365093424       15.2939777596       20.2004391021
  C        13.0716197297       25.6572411224       24.1005465701
  H        11.9916109109       25.5377975785       24.0371931008
  C        25.0972260934       14.2725813500       19.7552739180
  H        24.8373105703       14.0257263876       18.7162149123
  H        24.7204813420       13.4347234511       20.3681558452
  C        27.2026966525       14.6480235881       21.1287592629
  H        26.5787990293       14.8837524151       21.9914569948
  C        19.2899825440       13.1777322947       29.3266593500
  H        20.3318343677       12.9066851828       29.5472263615
  H        18.7415446424       13.1378286740       30.2814757519
  C        19.2440440188       14.6431243146       28.8519139073
  H        19.6251679415       15.3024297139       29.6412417363
  H        18.2236800825       14.9549285862       28.6053286449
  C        18.6925582037       12.1743974529       28.3650426266
  C        17.5690472312       10.3165620056       26.5656718013
  H        17.1347619512        9.5961149089       25.8751862293
  C        17.3060833657       11.9538697319       28.3347838467
  H        16.6615605265       12.5097483795       29.0156439007
  C        19.5050282324       11.4498607331       27.4794067289
  H        20.5816377022       11.6116512318       27.4936706398
  C        18.9501918187       10.5309783160       26.5825900139
  H        19.5962203017        9.9832256580       25.8994043218
  C        14.8953820741        8.8859678118       21.8798454051
  H        14.6176103259        7.9822711023       22.4181015836
  C        16.3664878233       10.7913377034       21.5882092377
  H        17.2348518357       11.3668870577       21.9076351840
  C        16.0075633915        9.6326335343       22.2830978077
  H        16.6013939672        9.3111430652       23.1366356929
  C        13.8883611292       14.2078991307       25.8476056250
  C        15.2976256174       14.0145631521       25.3137615140
  H        15.9945390686       13.9165670457       26.1633543927
  H        15.3491219904       13.0507881591       24.7851206850
  C        16.0402113864       15.0239275177       31.4500173003
  H        16.4733976556       14.4711876439       32.2813059008
  C        14.9829558982       14.4741600580       30.7166653696
  H        14.5913689945       13.4916686231       30.9732951935
  C        13.7321230875       20.4160819294       17.9339187429
  C        13.7408617614       21.6529052476       18.6008975817
  H        14.5610462366       21.9037200585       19.2737913906
  C        16.2326514268       19.9328660987       17.7945584362
  C        14.8354892771       19.3989205066       18.1430459217
  C        17.0815556879       23.1031064571       15.6371807762
  C        18.3456438055       23.3159583300       17.8238935002
  H        18.7936674461       22.3256290948       17.6672958091
  H        17.4630465202       23.1901318433       18.4661519752
  C        17.6351216601       22.1188221121       14.8014090257
  H        18.7175361109       22.0014840435       14.7568289754
  C        17.9770175073       23.9804968061       16.4850021500
  H        17.4927297125       24.9479155165       16.6783756000
  H        18.9107258944       24.1966945140       15.9426323627
  C        22.7840463416       14.0131737625       23.3949779273
  H        22.5171903603       14.4367059948       22.4203392469
  H        23.8080333520       13.6227640148       23.3379986555
  C        23.9169829411       31.7101516440       26.4256642232
  H        24.1861950140       32.0643738094       27.4184271233
  C        22.8490282317       32.2974761922       25.7386648772
  H        22.2840542602       33.1075029496       26.1948566804
  C        10.5105132915       20.1276590674       27.5610813834
  C         9.1259281534       19.9360432080       27.6217725667
  C         8.2578168293       20.9583243348       27.2282520118
  C        10.1684947163       22.3623175172       26.7237684305
  C        25.8921961571       22.3733056052       31.2392269932
  H        26.5372683681       21.9799357762       32.0219667569
  C        26.3202560102       23.4372312451       30.4401366192
  H        27.3025623269       23.8774358822       30.6002487520
  C        24.6238155787       21.8209599854       31.0274843119
  H        24.2794288132       20.9961208389       31.6482705519
  C        23.7926639622       22.3320481935       30.0265723592
  H        22.8071317921       21.8940586083       29.8708145285
  C        27.0382395993       18.8629003302       24.9810729010
  C        15.6852423528       23.2326646952       15.6832382767
  H        15.2397135563       23.9870804273       16.3298041783
  C        14.8600226339       22.4049010956       14.9154388003
  H        13.7791771824       22.5126881228       14.9782324245
  C        15.4234240441       21.4332899202       14.0826003160
  H        14.7834642406       20.7908189079       13.4813288457
  C        16.8144647585       21.2920563062       14.0279298725
  H        17.2625119455       20.5395783464       13.3820198334
  C        11.6404821407       22.2791182037       17.5588341638
  H        10.8334537219       22.9950984521       17.4183825156
  C        11.6199349948       21.0524947821       16.8885420988
  H        10.7953213455       20.8087509817       16.2217309338
  C        12.7063073504       22.5749488708       18.4160388121
  H        12.7317952254       23.5244995284       18.9473586639
  C        12.6585520619       20.1337524458       17.0749324948
  H        12.6372433674       19.1801677307       16.5494653837
  C        18.5948969528       29.9953635432       19.0383368046
  H        17.9412604595       30.5407682889       18.3609242628
  C        20.2231463562       28.2423241938       19.4328061780
  H        20.8332547176       27.4224637340       19.0533411264
  C        18.6593842840       30.3488896711       20.3903026253
  H        18.0556460592       31.1713544525       20.7680167743
  C        19.3798525422       28.9403742120       18.5624549450
  H        19.3394630031       28.6590361009       17.5121846296
  C        14.5085978037       10.4651399586       20.0828630562
  H        13.9245752519       10.7865386742       19.2217253752
  C        14.1464719320        9.3053584610       20.7761629828
  H        13.2823864740        8.7288439047       20.4529341880
  C        15.9822484287       17.0326477313       30.0658894767
  C        14.4227484166       15.2007566664       29.6607580376
  H        13.6011563701       14.7844377554       29.0798534286
  C        16.5352431395       16.2906363798       31.1227993371
  H        17.3550959553       16.7164142600       31.6999200143
  C        14.9165865076       16.4708285611       29.3443763271
  H        14.4720448328       17.0301934079       28.5232445252
  H        15.6734385469       10.8623088549       27.4456633567
  C        24.1368520812       18.1696315418       28.6930831327
  C        22.0547240631       21.6709365082       11.9443052009
  H        21.8922466101       21.1262553121       12.8739762598
  C        21.4869672688       21.1941016910       10.7592418314
  H        20.8957165719       20.2806792436       10.7738891272
  C        22.8247885790       22.8470130487       11.9547783303
  C        23.0018034031       23.5340494579       10.7437692562
  H        23.5908534062       24.4498873667       10.7355566821
  C        21.7691282307       11.7805875110       22.7982701493
  C        21.7981609119       12.9068781570       23.8087851519
  H        20.7937363612       13.3462787616       23.9193795487
  H        22.0804534672       12.5220091178       24.7984256635
  C        27.2465893135       23.9408048055       12.6515615650
  H        26.8825935220       24.3690237627       11.7196982906
  C        27.7295691244       22.0047245825       14.0270239953
  H        27.7335471921       20.9243572959       14.1642469461
  C        27.7214250701       24.7719101156       13.6720282877
  H        27.7279468240       25.8519631752       13.5400217837
  C        19.7079534665       16.7230150310       13.5742555364
  H        18.9307728903       17.3446561961       13.1339885362
  C        20.8642916004       16.4228986960       12.8461116680
  H        20.9935235280       16.8101118864       11.8373923122
  C        25.3307393110       17.1771836175       12.3697316765
  H        25.3921553678       17.1427736830       11.2838578022
  C        25.8982031986       16.2692468683       14.5357143984
  H        26.4048635272       15.5233856346       15.1456834652
  C        25.9794285974       16.2068004026       13.1397553896
  H        26.5476639192       15.4136344061       12.6583018456
  C        24.6055626495       18.1988054105       12.9931560463
  H        24.1045111528       18.9539324917       12.3882996033
  C        25.1765476404       17.2941624544       15.1551049746
  H        25.1257893997       17.3336962970       16.2430564978
  C        11.2939217718       14.4764221208       26.9407536386
  H        10.2960738469       14.5806496544       27.3615681625
  C        13.2186084196       13.1049498730       26.4083069246
  H        13.7116439499       12.1335053155       26.4124759327
  C        11.9392739865       13.2341002828       26.9529389638
  H        11.4431150689       12.3652518055       27.3807500159
  C        13.2253690778       15.4440108947       25.8320191542
  H        13.7027943161       16.3164291049       25.3894810315
  C        11.9396851740       15.5771223218       26.3725971144
  H        11.4421920855       16.5445494440       26.3345989141
  C        22.4365005521       23.0599322786        9.5549230306
  H        22.5887734318       23.6079617020        8.6274653976
  C        21.6772700596       21.8865072221        9.5584588399
  H        21.2367125598       21.5153968247        8.6356327431
  C        22.4262894682       18.9209882763       15.7009654636
  H        22.6110134231       18.2648115895       16.5585933510
  H        21.7958732983       18.3836761817       14.9808835300
  C        28.3092813452       21.2883585246       26.6107132927
  C        28.8295658007       14.0607967334       18.9386994027
  H        29.4572423629       13.8322193851       18.0796585622
  C        28.5930834114       14.6625945433       21.2663254366
  H        29.0348818268       14.9096910584       22.2293310470
  C        28.3104804620       19.6626899746       24.6548329756
  C        27.4369704360       14.0536818814       18.8050610592
  H        26.9870450209       13.8176837030       17.8415618153
  C        28.9600775148       20.2864637686       25.8716488133
  H        24.2270940932       19.8752538211       27.3214221832
  H        23.8807387566       18.3255095241       26.5240876445
  H        23.9918024830       18.8171588281       29.5693968267
  H        23.4836601555       17.2939012872       28.8258400672
  H        27.2444520586       18.0558258008       25.6959492448
  H        26.2516597233       19.5020589537       25.3964293089
  H        28.0479081206       20.4423010134       23.9193993289
  H        29.0316958537       19.0057277210       24.1493468909
  C        30.2381202039       19.8786748221       26.2863486491
  C        28.9187894657       21.8649654680       27.7289204514
  C        30.8554742255       20.4579617841       27.4004263662
  C        30.1955562483       21.4536134043       28.1273084712
  H        30.6725447581       21.9067943677       28.9938957577
  H        31.8492728183       20.1312336790       27.6999094040
  H        30.7531975333       19.0998028668       25.7255758094
  H        27.3139084238       21.6205289865       26.3153103602
  H        28.3897030953       22.6331345564       28.2898620676
  C        22.5661622772       10.6373499010       22.9687080448
  C        20.9653389654       11.8695582808       21.6500631245
  C        20.9552751420       10.8434068610       20.7006165700
  C        22.5585689471        9.6078926674       22.0214128557
  C        21.7519958337        9.7082343278       20.8835985336
  H        20.3429146791       12.7513757718       21.4989161210
  H        23.1938498692       10.5534505473       23.8547917855
  H        23.1794041743        8.7275061871       22.1733186863
  H        20.3222806715       10.9302790284       19.8198120727
  H        21.7412237589        8.9072140145       20.1475239300
  H        16.2967878258       20.2186100711       16.7369679272
  H        16.4994073650       20.8021846176       18.4043402645
  H        14.6279283013       18.5043787470       17.5398550843
  H        14.8443656842       19.0570583640       19.1931105868
  C         8.7845344822       22.1734949841       26.7756638392
  H        10.5705378857       23.3156186603       26.3825528440
  H         8.1163133241       22.9767063554       26.4721879754
  H        11.1823172403       19.3276790038       27.8691976406
  H         8.7267661242       18.9889703839       27.9790573959
  H         7.1806780280       20.8131598024       27.2780002609
  C        25.5807099744       17.7254463526       28.5988794616
  C        25.9023806835       16.4624252734       28.0754755658