 716
 i =     1023, E =     -3557.9133995125
 Au        20.1461509788       18.3437161147       20.1331816248
 Au        20.1499476138       21.6287732615       20.1233706307
 Au        22.5973243847       19.8089738790       19.2154293650
 Au        21.7009054860       20.0829846789       22.0595339994
 Au        19.5236655105       21.5085121455       23.0271392945
 Au        16.6759602637       19.9663277862       24.1343141710
 Au        14.5353596783       18.2780566744       21.8862525320
 Au        15.7205488755       17.8667679410       18.8213904580
 Au        19.1632200234       18.4636722605       22.9917284926
 Au        21.2339159427       19.8720818135       25.3890298055
 Au        23.9318765326       21.9102084511       24.3113835265
 Au        24.2813271823       20.9966820412       21.1185805049
 Au        21.8367420090       22.9235864998       22.2097323343
 Au        24.7189827010       25.3907904833       21.6057656523
 Au        26.7031665514       24.0571710346       18.9167696840
 Au        24.9953786684       21.1576865788       18.3869601451
 Au        22.7181808015       17.0413194654       19.1227086359
 Au        25.0081719976       14.8391089464       20.8694263229
 Au        25.8410610308       16.4805581776       23.8723138014
 Au        23.5155176003       18.9624962224       23.8388069021
 Au        21.9347487357       17.2759822783       22.1588617068
 Au        20.1288202330       14.9675953331       20.1280430090
 Au        22.7484380265       22.6460002945       19.2463801402
 Au        20.1297933875       24.8614046628       20.1234556790
  S        17.6683253106       22.0853472377       24.5023493008
  S        15.3491597417       17.9954686700       24.0841680355
  S        13.5662969446       18.5640575296       19.7551410060
  S        20.2772962433       17.7276962508       25.0846238023
  S        22.2238816170       21.9411162835       25.9608109002
  S        25.6107641416       22.3141059490       22.7021438480
  S        22.6525778367       25.1967435463       22.7148551161
  S        26.8395407244       25.6603138116       20.6295938393
  S        26.6984118848       22.4425010394       17.2102756108
  S        23.5600113390       14.7292175243       19.0194363851
  S        26.6120381087       14.6674174739       22.5785546565
  S        25.2113330297       18.1322643765       25.4321365811
  S        21.6269390308       14.8453399827       21.9463086069
  S        22.3058106798       25.0338240771       19.2233900818
  C        18.0696667197       22.1606453071       26.2429613496
  C        18.1281194571       21.0450864135       27.0863557429
  H        18.0435591376       20.0438326093       26.6664724868
  C        18.2629144773       21.2102768596       28.4696350264
  H        18.2879561377       20.3139126209       29.0837702253
  C        18.3465580801       22.4820216235       29.0577424451
  C        18.3262402104       23.5887171209       28.1884414243
  H        18.3896996874       24.5963254743       28.5952824452
  C        18.1947507803       23.4423955616       26.8075338454
  H        18.1526376584       24.3213589269       26.1659996165
  C        18.4071718438       22.6976635054       30.5775031014
  C        17.1047366274       23.4023398478       31.0324840849
  H        16.9787858492       24.3734166119       30.5356735460
  H        16.2234336213       22.7901446744       30.7978576419
  H        17.1211323933       23.5776870764       32.1172525863
  C        19.6179050804       23.5874136098       30.9442696758
  H        19.5533031624       24.5780522652       30.4759614683
  H        19.6608022590       23.7403487902       32.0314944227
  H        20.5628330931       23.1277247330       30.6239290044
  C        18.5340085589       21.3709233300       31.3507704357
  H        17.6676020009       20.7156506022       31.1855105953
  H        19.4400973052       20.8175787567       31.0661180009
  H        18.5919571095       21.5745618922       32.4282259103
  C        13.9719566807       18.3550717924       25.1761430212
  C        12.6849251973       17.8920614185       24.8775248570
  H        12.4953948749       17.4088368461       23.9206935382
  C        11.6434570695       18.0574934307       25.7963092204
  H        10.6572535287       17.6921022132       25.5223516868
  C        11.8446330444       18.6823108984       27.0364768730
  C        13.1432463068       19.1490221285       27.3125821863
  H        13.3485704635       19.6532448175       28.2552905090
  C        14.1926793647       18.9924013538       26.4076589915
  H        15.1847886279       19.3705821588       26.6500290535
  C        10.7246933258       18.8774082167       28.0686694074
  C         9.3869681951       18.2724000502       27.6022931982
  H         9.4661739128       17.1903805526       27.4289265525
  H         8.6212810791       18.4291540903       28.3735710683
  H         9.0256522264       18.7431954314       26.6771474143
  C        12.2890486270       17.3359046550       19.5456153124
  C        11.9648391942       16.3697007530       20.5051211217
  H        12.5532439929       16.3100315606       21.4198098204
  C        10.8970408371       15.4918955787       20.2934244303
  H        10.6783915448       14.7545128308       21.0615253663
  C        10.1203447017       15.5429098421       19.1259109527
  C        10.4574756766       16.5264576823       18.1770341186
  H         9.8854128774       16.6037586205       17.2537457470
  C        11.5161980977       17.4119099153       18.3728627696
  H        11.7466625141       18.1651202971       17.6205294661
  C         8.9514579753       14.5848408254       18.8561103826
  C         9.2333752147       13.7891467854       17.5579110063
  H         9.3423753899       14.4531987969       16.6904643223
  H        10.1584875974       13.2036308684       17.6501074339
  H         8.4068748171       13.0964420705       17.3474283836
  C         7.6464029646       15.4000388885       18.6850189584
  H         6.8012273954       14.7293459418       18.4767956426
  C        19.2601874023       17.5148067813       26.5436405819
  C        19.8367455469       17.7136123545       27.8078474495
  H        20.8668725997       18.0592188457       27.8811550394
  C        19.0985984313       17.4680148661       28.9686770264
  H        19.5825444427       17.6375298585       29.9268404033
  C        17.7694286558       17.0171888950       28.9210677617
  C        17.2158510486       16.8092049643       27.6443120773
  H        16.1866033186       16.4667754621       27.5465906918
  C        17.9413659496       17.0438487450       26.4731381426
  H        17.4757102819       16.8762046554       25.5048854688
  C        16.9358355338       16.7527402457       30.1843810345
  C        15.6636558309       17.6342926912       30.1579828036
  H        15.9260012496       18.7015322352       30.1426944948
  H        15.0417485600       17.4309490275       29.2762498018
  H        15.0515992606       17.4467574914       31.0511854840
  C        17.7143492668       17.0674832294       31.4768949582
  H        18.6146698958       16.4451622497       31.5755903115
  H        18.0185821244       18.1223309059       31.5273083876
  H        17.0771057389       16.8661122243       32.3482495816
  C        16.5223839688       15.2617261930       30.2265988579
  H        17.4054454404       14.6087558223       30.2480737460
  H        15.9226869303       15.0568541185       31.1243005341
  H        15.9195367949       14.9820351606       29.3527328167
  C        23.0351689763       21.6532828878       27.5332559478
  C        22.2662181351       21.2572186915       28.6362031993
  H        21.2014332817       21.0654084428       28.5098447469
  C        22.8609086665       21.1061683924       29.8934452878
  H        22.2320210082       20.7937204898       30.7236679234
  C        24.2290066691       21.3462845366       30.1002323880
  C        24.9790540268       21.7549707893       28.9819724575
  H        26.0439204001       21.9550913518       29.0886840644
  C        24.4018154919       21.9103726602       27.7212506865
  H        25.0076322217       22.2282912560       26.8727552415
  C        24.9108921787       21.1904942220       31.4674956069
  C        25.4811216472       22.5603559193       31.9104703199
  H        24.6816735964       23.3078558425       32.0057715025
  H        25.9828895817       22.4688056315       32.8837300126
  H        26.2147620699       22.9460120821       31.1904313457
  C        26.0681678197       20.1685001038       31.3554191033
  H        25.6988750625       19.1833507285       31.0378156262
  H        26.8258958444       20.4887668498       30.6285517536
  H        26.5670929698       20.0508047437       32.3272171318
  C        23.9360848949       20.6991473974       32.5548064865
  H        23.5119547087       19.7149324652       32.3108507774
  H        24.4685516234       20.6003626120       33.5100866436
  H        23.1061830337       21.4020565092       32.7107159643
  C        27.1676252328       21.5806630270       23.1703016309
  C        28.2811494987       21.9207496836       22.3807254594
  H        28.1445928392       22.5251575494       21.4839861824
  C        29.5593361518       21.5107418897       22.7564833752
  H        30.3977258074       21.8101484107       22.1305152289
  C        29.7842296838       20.7426008715       23.9149022531
  C        28.6564369847       20.3930962256       24.6751219354
  H        28.7655279099       19.7906095711       25.5732914689
  C        27.3679987142       20.8079612066       24.3190556042
  H        26.5180160125       20.5337843266       24.9410669871
  C        31.2160293737       20.3738667362       24.3322908101
  C        31.9307428956       21.6586615464       24.8214111733
  H        31.9628757837       22.4219390132       24.0325247215
  H        31.4108675919       22.0929206921       25.6860476257
  H        32.9645432594       21.4351045207       25.1199684245
  C        31.9992165573       19.7898669816       23.1328736266
  H        32.0990251657       20.5143796044       22.3141158440
  H        33.0143857964       19.5099533886       23.4459704445
  H        31.5048865408       18.8954372448       22.7298123215
  C        31.2411201602       19.3360705791       25.4718005170
  H        30.7182550315       18.4107258420       25.1918075593
  H        32.2804340802       19.0751621850       25.7117684648
  H        30.7808560493       19.7219400289       26.3913421061
  C        22.9900877158       25.4004738439       24.4581254018
  C        24.2826799952       25.5841556670       24.9660596470
  H        25.1356537794       25.5048032237       24.2927396193
  C        24.4762596370       25.8875102460       26.3179663298
  H        25.4946391368       26.0341992861       26.6677532160
  C        23.3999747660       26.0098379328       27.2090620513
  C        22.1113771153       25.7917068068       26.6852553479
  H        21.2432546305       25.8580040112       27.3390227307
  C        21.9001758553       25.4925123148       25.3402337558
  H        20.8890449708       25.3400849897       24.9685829192
  C        23.5781472499       26.3875192543       28.6867838170
  C        22.9212393639       25.3141842656       29.5859874363
  H        21.8464638506       25.2170373682       29.3867995585
  H        23.3796729351       24.3285116211       29.4270211947
  H        23.0393230866       25.5830643713       30.6449806422
  C        25.0620066561       26.5056803817       29.0850015718
  H        25.5800646520       27.2882805385       28.5141000634
  H        25.1388097526       26.7683323935       30.1484763551
  H        25.5983835557       25.5582059374       28.9367931009
  C        22.8959301410       27.7544691138       28.9417496213
  H        21.8239737907       27.7210983706       28.7051989074
  H        22.9985358522       28.0438728212       29.9969677531
  H        23.3499707972       28.5423184917       28.3254652486
  C        26.8668795002       27.2554443628       19.8010933711
  C        28.0511810412       27.9958816607       19.8824925655
  H        28.9034643351       27.5901312584       20.4231306511
  C        28.1400201277       29.2547137321       19.2756941520
  H        29.0738206119       29.8033035380       19.3625592461
  C        27.0598831787       29.8086455697       18.5740700552
  C        25.8788531078       29.0435847752       18.5044266890
  H        25.0136282765       29.4296054124       17.9682731499
  C        25.7732457068       27.7905688736       19.1062567556
  H        24.8450666216       27.2259052622       19.0412734863
  C        27.1244485517       31.1842558116       17.8941636152
  C        26.9211481800       31.0086001076       16.3696252555
  H        27.7106976390       30.3780229568       15.9388509638
  H        25.9556973590       30.5387664052       16.1395042258
  H        26.9494151589       31.9841834661       15.8647459176
  C        28.4762644113       31.8876100243       18.1225788686
  H        28.6725889947       32.0587173663       19.1899397834
  H        29.3137412803       31.3109008449       17.7066057062
  H        28.4713626432       32.8667913389       17.6255919122
  C        26.0059798836       32.0929742789       18.4592700196
  H        26.1286488166       32.2407576048       19.5407758248
  H        26.0337224691       33.0784996357       17.9742421756
  H        25.0087260332       31.6659369009       18.2915765003
  C        28.3078210543       21.6629081853       17.3630129838
  C        29.1761755012       21.7537364786       16.2685267083
  H        28.8594557712       22.2818587345       15.3719362760
  C        30.4509007508       21.1765469933       16.3290425234
  H        31.1022386482       21.2776190911       15.4649589208
  C        30.8921538881       20.4844548737       17.4663107106
  C        29.9968541827       20.3957697690       18.5497827453
  H        30.2848369711       19.8573179384       19.4511868307
  C        28.7305053710       20.9759959226       18.5094652081
  H        28.0638765385       20.8888269607       19.3644684078
  C        32.2743184598       19.8214523009       17.5602475855
  C        33.0254314440       20.3566572199       18.8035555479
  H        33.1667791445       21.4440760016       18.7398315790
  H        32.4824445617       20.1406990646       19.7331053967
  H        34.0161446210       19.8877802997       18.8810264679
  C        32.0910094374       18.2894947709       17.6934317351
  H        31.5763754694       17.8802894504       16.8131397510
  H        33.0682043609       17.7939359881       17.7801698784
  H        31.4964112652       18.0256421975       18.5784563973
  C        33.1451978980       20.1016863556       16.3203843479
  H        33.3137108020       21.1775508947       16.1745522091
  H        34.1271262919       19.6256636339       16.4436261224
  H        32.6967574436       19.6956217629       15.4030753367
  C        24.6009685572       14.3609902483       17.6140639782
  C        23.9918677741       14.1766975359       16.3605639270
  H        22.9302152605       14.3824390251       16.2382984814
  C        24.7328406887       13.6891054879       15.2833781805
  H        24.2178489281       13.5410090793       14.3357146623
  C        26.0998349704       13.3703442010       15.3967025162
  C        26.6974464553       13.5933432646       16.6467757302
  H        27.7517516825       13.3737497916       16.7952580455
  C        25.9686457573       14.0795475727       17.7370533400
  H        26.4556847050       14.2161661076       18.7019905883
  C        26.8605088534       12.7506573555       14.2145383240
  C        28.3818853310       12.7047042519       14.4600273411
  H        28.6435451980       12.0669749751       15.3151023738
  H        28.8858264848       12.2890894561       13.5773342560
  H        28.7956301093       13.7068970084       14.6405974516
  C        26.3549805604       11.3004773008       14.0100193101
  H        26.5298348329       10.6924993365       14.9079041041
  H        25.2779723265       11.2789482418       13.7949464375
  H        26.8774769581       10.8257860720       13.1676787754
  C        26.6081153784       13.5588962624       12.9210731580
  H        25.5473659559       13.5554342805       12.6390657826
  H        26.9254465061       14.6047355856       13.0337038350
  H        27.1682576193       13.1185057624       12.0848630317
  C        26.1590859394       13.2660173197       23.6091648863
  C        24.9122799545       12.6335860780       23.5719590907
  H        24.1342071191       13.0124343357       22.9099141895
  C        24.6648084055       11.5197700338       24.3831501251
  H        23.6824025598       11.0582972969       24.3280389736
  C        25.6412308426       11.0034353649       25.2489638812
  C        26.8871647727       11.6578750245       25.2732032845
  H        27.6757926416       11.2956557791       25.9301161571
  C        27.1504003335       12.7671116270       24.4705419849
  H        28.1249089769       13.2499903874       24.5075813384
  C        25.4003970545        9.7839021846       26.1510108913
  C        23.9998081212        9.1753103819       25.9500587866
  H        23.2031026120        9.8906325832       26.1967062863
  H        23.8478325308        8.8343004910       24.9168680011
  H        23.8779721324        8.3046821242       26.6079913291
  C        25.5384497734       10.2111809226       27.6329246489
  H        24.7942356670       10.9773348979       27.8916188484
  H        25.3842110065        9.3488190007       28.2963077858
  H        26.5330089184       10.6246753874       27.8455002190
  C        26.4507864450        8.6914071975       25.8348132621
  H        27.4756648383        9.0484954281       25.9994507828
  H        26.2951224931        7.8153229800       26.4794798688
  H        26.3739385264        8.3637999899       24.7891974581
  C        24.4896617360       17.2254543643       26.7945676835
  C        24.1060820313       17.9508600067       27.9368261608
  H        24.1467977225       19.0382450964       27.9308961664
  C        23.6977793974       17.2796070996       29.0896030265
  H        23.4246576810       17.8780892968       29.9573237665
  C        23.6507282248       15.8742873843       29.1611766361
  C        24.0039410848       15.1696961210       28.0004700496
  H        23.9827005499       14.0829366440       27.9897892078
  C        24.4154184962       15.8263681596       26.8359050596
  H        24.7077467265       15.2453398612       25.9610732748
  C        23.2659930273       15.1786118563       30.4755067977
  C        24.3132828141       15.5364689526       31.5590617531
  H        24.3633450698       16.6200248220       31.7310473510
  H        24.0579028789       15.0558737254       32.5137674202
  H        25.3156371875       15.1984576828       31.2631987986
  C        23.2225453325       13.6446652742       30.3353873713
  H        22.4815815537       13.3228773093       29.5898941806
  H        24.1994588254       13.2308471837       30.0501457675
  H        22.9413700004       13.1936307635       31.2962841503
  C        21.8706642200       15.6592034033       30.9392921918
  H        21.8499634058       16.7441558849       31.1070228512
  H        21.1021804437       15.4216413897       30.1910000880
  H        21.5941806907       15.1715057132       31.8843761180
  C        20.8217578743       14.0914300443       23.3459298985
  C        19.7862013832       13.1601654410       23.1917477834
  H        19.3625504528       12.9862477367       22.2037414382
  C        19.2975666274       12.4601090049       24.3004229020
  H        18.4924264880       11.7481866896       24.1396171285
  C        19.8124836192       12.6643747400       25.5900916636
  C        20.8417277732       13.6153874668       25.7245201190
  H        21.2682005892       13.8239174296       26.7044255807
  C        21.3438070480       14.3193764489       24.6312622773
  H        22.1390307071       15.0487464118       24.7725145313
  C        19.3036850586       11.9029441201       26.8232257212
  C        18.8088552417       12.9103206514       27.8882692590
  H        19.6061762261       13.5937292640       28.2092532944
  H        17.9883202947       13.5280841624       27.4984290469
  H        18.4444751436       12.3768660456       28.7772075986
  C        18.1428175364       10.9483549600       26.4836880456
  H        17.8071130228       10.4355878738       27.3948799824
  H        17.2798220206       11.4853085392       26.0654581065
  H        18.4460892800       10.1759696831       25.7636929927
  C        20.4605491843       11.0640219281       27.4187468245
  H        21.3143318237       11.6941713662       27.7020560142
  H        20.1244910638       10.5288655347       28.3178410800
  H        20.8179659557       10.3197223951       26.6939262313
  C        22.2314650536       25.8316779225       17.6319151208
  C        23.3300873020       25.7300226217       16.7595201602
  H        24.1415272952       25.0398096873       16.9872081242
  C        23.3897041489       26.5287646610       15.6170812584
  H        24.2605306207       26.4336234946       14.9703928833
  C        22.3725318294       27.4486045283       15.2945171146
  C        21.2716018115       27.5106387274       16.1624785859
  H        20.4475849595       28.1879958631       15.9546586908
  C        21.1940246519       26.7182226612       17.3121664175
  H        20.3277462274       26.7915294432       17.9683146433
  C        22.5006535524       28.3384438711       14.0486589451
  C        23.7795499678       29.2023810437       14.1689287666
  H        24.6825817379       28.5857638615       14.2659299059
  H        23.8990464167       29.8369801848       13.2798644791
  H        23.7248887616       29.8579116569       15.0489846539
  C        21.2954866087       29.2831462343       13.8768658019
  H        20.3528954292       28.7300913931       13.7597187046
  H        21.1873060424       29.9662514035       14.7303983999
  H        21.4338491088       29.8978605528       12.9775099213
  C        22.6027487121       27.4530786551       12.7838010293
  H        21.6879583552       26.8576142365       12.6543572624
  H        22.7312938402       28.0771681570       11.8885200209
  H        23.4521083545       26.7594177710       12.8355992160
 Au        17.6702638091       19.7895162134       21.0153021556
 Au        18.6052230906       20.0909737757       18.1944642480
 Au        20.7631121515       21.5153941281       17.1978018528
 Au        23.5506938440       19.9519765430       16.0785720998
 Au        25.6637242987       18.2696282247       18.3089481895
 Au        24.5719687825       17.9061399419       21.4351111785
 Au        21.0906572051       18.4413186990       17.2716878419
 Au        19.0640333457       19.8737960501       14.8504547116
 Au        16.3745355384       21.9193651690       15.9164401942
 Au        16.0025314918       20.9603068768       19.0842720506
 Au        18.4583319772       22.9302594451       18.0320325627
 Au        15.5544212628       25.3921253656       18.6219500027
 Au        13.5377080848       24.0454107715       21.2698124167
 Au        15.2664192599       21.1524531570       21.8062507491
 Au        17.6050411670       17.0176172636       21.1261423872
 Au        15.3094262955       14.8060555216       19.4300226562
 Au        14.5123529373       16.4054854504       16.3733647640
 Au        16.7730299082       18.9825358156       16.4271271221
 Au        18.3581419164       17.2847381524       18.0964542843
 Au        17.5300278899       22.6224696880       20.9726797476
  S        22.6164038626       22.0994756950       15.7208085101
  S        24.8015090646       17.9342363411       16.1358405333
  S        26.6897379483       18.5881982640       20.4134118710
  S        20.0025733090       17.7224104325       15.1573984643
  S        18.1016217420       21.9586198596       14.2875639776
  S        14.6817168018       22.3099036077       17.5142821606
  S        17.6298309928       25.2001792556       17.5290923777
  S        13.4223147818       25.6651369117       19.5715039498
  S        13.5393194766       22.4203388697       22.9642157551
  S        16.7249590007       14.7286331130       21.3066241089
  S        13.7520433384       14.5986425454       17.6799009311
  S        15.1019516920       18.0932942743       14.8387290342
  S        18.6190656431       14.8466376547       18.3210141759
  S        17.9514870145       25.0155734925       21.0214366290
  C        22.2263380000       22.1986859510       13.9788232408
  C        22.2332963237       21.1015790133       13.1094751647
  H        22.3566858479       20.0950738398       13.5075845433
  C        22.1172806880       21.2940230675       11.7282631536
  H        22.1457157550       20.4125402077       11.0932609230
  C        21.9890225446       22.5739207030       11.1669080958
  C        21.9428249102       23.6598258429       12.0612578328
  H        21.8420605533       24.6729192374       11.6763043858
  C        22.0546666992       23.4867636244       13.4407225846
  H        22.0464010924       24.3516067384       14.1023785767
  C        21.9544096125       22.8208374830        9.6510411566
  C        23.2458108816       23.5725723731        9.2418505405
  H        23.3314303221       24.5354531165        9.7627033869
  H        24.1389403209       22.9807660647        9.4838872103
  H        23.2491478708       23.7716081107        8.1610515259
  C        20.7273530467       23.6834405091        9.2742949819
  H        20.7538292412       24.6668492664        9.7610966895
  H        20.7037179167       23.8551719585        8.1893024922
  H        19.7887892627       23.1924194445        9.5655012051
  C        21.8836459934       21.5081003339        8.8469989553
  H        22.7660025418       20.8755155458        9.0156309817
  H        20.9888838696       20.9221052944        9.1003802331
  H        21.8413159080       21.7337079428        7.7731900779
  C        26.2014768929       18.1826785467       15.0391945085
  C        27.1335137604       17.1369407662       14.9299003741
  H        27.0224232456       16.2467366376       15.5471245881
  C        28.1896587702       17.2354960574       14.0253615089
  H        28.8971710224       16.4098076966       13.9655681868
  C        28.3582524347       18.3605811730       13.1955676938
  C        27.4163391174       19.3918104446       13.3222794662
  H        27.4983238630       20.2847799332       12.7084235151
  C        26.3522941904       19.3114509000       14.2280519041
  H        25.6356925514       20.1289036532       14.3062054105
  C        29.5306277016       18.4147162860       12.2055076081
  C        29.4107126537       17.2395599053       11.2045165298
  H        28.4750804805       17.3052891621       10.6320628136
  H        30.2485928752       17.2551929674       10.4937005664
  H        29.4231129593       16.2675096756       11.7149402836
  C        29.5591275387       19.7304351007       11.4045537160
  H        28.6500343563       19.8625404873       10.8019950390
  H        29.6668783891       20.6052594320       12.0604576748
  H        30.4143784578       19.7253464741       10.7158832935
  C        30.8640918957       18.2915329582       12.9816036891
  H        30.9273379466       17.3467775534       13.5371642936
  H        31.7156614746       18.3295699164       12.2884451630
  H        30.9703979396       19.1117538805       13.7051114255
  C        27.9851652189       17.3740329295       20.5895555363
  C        28.3304564477       16.4526323514       19.5934117406
  H        27.7495650364       16.4215949824       18.6722212311
  C        29.4162384735       15.5898287739       19.7735748481
  H        29.6525030640       14.8893451171       18.9767262428
  C        30.1908802428       15.6124051348       20.9434354326
  C        29.8336047827       16.5527893885       21.9279932897
  H        30.4035587811       16.6073081468       22.8541642011
  C        28.7572095578       17.4231452693       21.7641877909
  H        28.5121863903       18.1435604993       22.5435752273
  C        31.3802050730       14.6701920888       21.1778542958
  C        31.1152780408       13.8195082241       22.4443809269
  H        30.9893057793       14.4476940037       23.3359511865
  H        30.2043382110       13.2164367984       22.3278810420
  H        31.9573941364       13.1387643451       22.6306693049
  C        32.6673131371       15.5062378840       21.3813359953
  H        32.5802400463       16.1872429659       22.2382340236
  H        33.5267855336       14.8464768261       21.5644090402
  H        32.8859002726       16.1135111652       20.4919779007
  C        31.6099823103       13.7122216239       19.9932283095
  H        30.7389215531       13.0667082170       19.8153448621
  H        31.8322449668       14.2562358736       19.0648547954
  H        32.4668285498       13.0595948584       20.2069392097
  C        21.0865658478       17.4991028084       13.7511020564
  C        20.6405614604       17.8383805366       12.4650785563
  H        19.6631820448       18.3023370582       12.3408879537
  C        21.4424523669       17.5836064982       11.3488101065
  H        21.0604725608       17.8633569299       10.3704057739
  C        22.7089374739       16.9890020818       11.4659715047
  C        23.1272778806       16.6346090510       12.7620239105
  H        24.1019054937       16.1725925300       12.9125359718
  C        22.3343885791       16.8729860783       13.8862705719
  H        22.6944805058       16.5905299175       14.8723017891
  C        23.6239806420       16.7347493479       10.2588513875