 668
 i =      457, E =     -3408.2606523792
 Au        20.3853625319       21.0752300161       24.5207582570
 Au        22.7602988610       19.4178467716       24.8217758541
 Au        22.7930373854       22.2862133479       20.7236014352
 Au        24.0921026791       20.2403054298       22.3580763303
 Au        20.1478515696       22.7357194113       22.1453050277
 Au        22.6972764513       22.4667369232       23.6494459038
 Au        21.2824653954       20.0165129000       21.9512531191
 Au        18.4024630010       20.3797061778       22.3550042848
 Au        22.8410813116       17.6215786743       22.4985894987
 Au        21.2845429955       27.3065758995       23.4880051591
 Au        21.0574336833       21.2756298140       29.4561020275
 Au        23.5845281324       17.5325250589       26.9553192526
 Au        19.1255508711       23.0540055891       17.0924436208
 Au        18.0177772775       19.6190757474       28.6129369856
 Au        25.3266668926       15.4181402315       22.5847717389
 Au        27.7892502617       23.3938277487       20.8284144715
 Au        21.4277827273       27.2212644638       19.7827749037
 Au        28.1416773814       17.5073612848       22.7501391760
 Au        20.2156518991       18.2427795835       23.9275453979
 Au        18.0688328149       22.7099760400       24.2096090260
 Au        22.4054202813       21.8438392029       26.4573409558
 Au        20.5932643875       19.4030667933       26.8632198296
 Au        20.7020977313       23.9598517380       25.0859424715
 Au        25.1805968902       23.0650505755       22.2762148877
 Au        25.0095310698       21.3201863794       24.8806274896
 Au        19.1982140988       25.2996388004       22.9259218598
 Au        20.3453945108       21.5285892936       19.3987745225
 Au        22.9840637795       21.4062355608       18.0158626467
 Au        25.3465846196       21.1237975398       19.9605445451
 Au        19.3402031660       21.9588796784       27.0151442054
 Au        23.0597410032       19.1080707020       19.8588787021
 Au        25.4003377710       18.3078777157       24.0315251129
 Au        21.9593593896       24.9628622025       21.7095488794
 Au        21.7298361010       23.8324906516       18.5540618014
 Au        17.9183297083       19.7574453058       25.0991834877
 Au        26.8928632457       20.8287971506       22.6012193992
 Au        25.5913157612       18.1279600368       21.1695036725
 Au        19.5947978740       24.7719095470       20.2178733182
 Au        17.0131848280       17.5837905349       23.0840050227
 Au        18.0170968580       25.0795722640       26.1315682524
 Au        20.7717158165       19.7476337387       16.9731391676
 Au        15.4839810194       20.6713504059       23.2020462599
 Au        27.6404651572       23.3690935588       24.2789033092
 Au        25.4092232937       18.9408450121       17.7818316958
  C        29.8473215971       10.4970878386       18.7774750547
  C        31.5787480254       10.4820541975       20.5855925803
  C        31.6804736678       12.2003803434       18.7374437274
  C        23.8088541991       12.0347611937       16.0931877668
  C        25.4856896564       13.6553616018       15.1251578536
  C        23.3781504724       13.1223176031       13.8817537008
  C        33.2494972739       16.4530510058       18.9610097323
  C        32.9033085681       18.2349159591       17.2385975794
  C        32.9733483325       18.8312155028       19.6916490597
  C        22.0768703169       17.4677957270       10.8847234850
  C        23.3323971574       19.4089697759        9.9217563173
  C        20.9786886463       19.7137976018       10.7839803962
  C        25.2690870130       25.3063083128       13.3208763954
  C        26.0798646059       27.2968316611       14.6428458365
  C        27.6801663594       25.9805155310       13.2391071919
  C        35.2322866732       25.8854263652       22.5287700002
  C        35.0798201943       23.9114007535       20.9608774217
  C        35.2999581723       23.5508170024       23.4279375738
  C        27.2571080590       30.7987746158       19.7531254801
  C        27.7538135316       29.1365709283       17.9522820766
  C        29.1785954443       29.1834277667       20.0103695986
  C        25.0603806382       33.8391095753       21.6055513067
  C        23.1308273236       34.7167691102       20.2731763209
  C        23.0592737406       34.7517821829       22.7971453557
  C        19.7770999013       29.1340824525       12.3044428262
  C        21.2036119190       27.2918244594       11.3943614981
  C        18.8388664673       26.8188633638       12.1427860300
  C        17.3657093531       30.8073935924       15.8537929411
  C        15.5860809047       29.6499706504       14.5283461543
  C        15.0933246589       30.3921510846       16.8675098166
  C        17.4267591817       33.1812462007       23.7884566073
  C        19.3326459353       32.7571903585       25.3539935436
  C        16.9570519556       32.7734918958       26.2120405482
  C        14.0662397965       28.1718263321       20.4835529677
  C        12.7845958724       26.4151219686       19.2022725037
  C        11.7410205506       27.5480757169       21.1740037524
  C        14.5287019213       20.5040449919       11.7695279316
  C        16.3807137093       20.3246449044       10.0633364929
  C        15.6701031376       18.3126562053       11.3731012903
  C        33.3364209922       21.7885929261       27.2523658684
  C        33.5342583651       19.2855819512       27.5187869497
  C        31.7517379163       20.5505947728       28.7395339508
  C        28.2154506265       11.3406622840       25.7159391053
  C        29.9336685396       12.2062609666       27.3168150544
  C        27.7401944002       11.3831288922       28.1966713897
  C        28.1912263069       18.4211955137       30.7185140472
  C        28.5577905083       20.5003405501       32.0630239718
  C        26.8996151873       18.7600889403       32.8356142573
  C        21.7200268134       10.0863910318       26.6063528098
  C        22.3962683819       11.9673868981       28.1139353041
  C        20.0254106916       11.8060985590       27.2647467983
  C        21.4105299267       18.5109855196       34.4108020077
  C        20.4558301626       16.1980595767       34.4862282705
  C        22.9364654623       16.4991934540       34.3404252927
  C        13.6672339263       12.9493634295       27.3129471124
  C        15.2768890679       12.6031220857       25.3982282200
  C        16.0273679000       12.2612066042       27.7644453267
  C        16.4057150947       25.0576287623       34.0700613313
  C        14.9932843444       23.1450937777       34.8585025866
  C        17.2333812124       23.5286659068       35.9008509239
  C         9.9914145301       14.3819924273       23.9198031132
  C         9.9307019642       16.1001615192       25.7390335660
  C         8.8106189212       16.5525524525       23.5214314412
  C        12.4023680143       22.6535499022       31.3630730581
  C        11.7397008526       21.8623887997       29.0849245425
  C        11.6969640465       24.3128342048       29.5971437626
  C        20.1416145742       30.4456152500       30.4815292316
  C        21.1635148612       28.5315186549       31.7267287693
  C        18.7664611891       28.4057962039       30.9461116740
  C        24.7281328420       28.1546967585       29.2334117624
  C        24.8005024741       26.5250535858       31.1365253220
  C        26.9142624683       27.6545463768       30.3396960111
  C        21.0546707352       11.6286814956       19.4132801595
  C        19.8331251649       13.0853660621       17.7818419671
  C        18.5571293143       11.3964829792       19.1143590321
  C        12.8967929165       20.5159036249       16.0479447127
  C        14.0227049495       22.7114710353       15.5059657104
  C        12.4759215704       22.5300890259       17.4680075104
  C        30.7353413791       11.3936822004       19.6612038656
  C        29.9114933231       12.3641330134       20.5197650865
  C        30.5623796420       13.2669823022       21.3832073586
  C        29.8559965782       14.1703284856       22.1751640371
  C        28.4514630987       14.2016192075       22.1306398864
  C        27.7851146079       13.3058409130       21.2862550836
  C        28.5094748671       12.4067488002       20.4947466690
  C        28.4217915087       12.1360875896       27.0283748817
  C        27.7910248624       13.5279707563       26.8797337910
  C        26.4141432319       13.6493913154       26.6122304862
  C        25.7988966979       14.8889030129       26.4494612700
  C        26.5547371877       16.0662092043       26.5535263971
  C        27.9255224229       15.9699105280       26.8279908996
  C        28.5274785642       14.7169026944       26.9875013725
  C        21.5135355743       11.5844704675       26.9012014614
  C        21.8799150756       12.4723390130       25.7030299985
  C        21.7550035824       13.8702176894       25.8019679895
  C        22.0920163253       14.7181809057       24.7466871278
  C        22.5689930870       14.1864608375       23.5429314137
  C        22.6854252694       12.7950109774       23.4157049661
  C        22.3481050994       11.9572964545       24.4833102891
  C        19.7358045272       12.3991094943       19.1573099637
  C        19.5164926879       13.4051669339       20.2968593334
  C        19.3370243869       12.9448193190       21.6132896874
  C        19.1411578202       13.8234886609       22.6788768955
  C        19.1184475885       15.2086409835       22.4536265931
  C        19.3115464068       15.6899934215       21.1531307744
  C        19.5042208137       14.7954034056       20.0964958835
  C        23.9773142942       13.3434232953       15.2838518258
  C        23.3006576010       14.5014629337       16.0313640364
  C        23.7037304946       14.8254183212       17.3398270717
  C        23.1374036656       15.8853570710       18.0465828449
  C        22.1386838763       16.6784803697       17.4578079976
  C        21.7134554693       16.3615511852       16.1600654937
  C        22.2868267634       15.2909674021       15.4662210651
  C        15.1347027331       13.1215379712       26.8502926507
  C        15.5167250564       14.6081756596       26.8914563419
  C        16.6084005945       15.1005686098       27.6234082923
  C        16.9340220393       16.4612256447       27.6347796868
  C        16.1612351365       17.3769458121       26.9114653034
  C        15.0702328156       16.9029067082       26.1635572412
  C        14.7635325957       15.5435582374       26.1588185531
  C        10.0326047204       15.8949317848       24.2079316427
  C        11.3206075642       16.5524550082       23.6912666719
  C        12.3326014529       15.8382243909       23.0299231163
  C        13.5005115906       16.4621870326       22.5799014609
  C        13.6902771597       17.8367437252       22.7786914872
  C        12.6858422100       18.5707992623       23.4273857583
  C        11.5290375002       17.9319457878       23.8751163313
  C        21.5728589786       17.0666492474       33.8766492224
  C        21.5229823756       17.0886236439       32.3424260563
  C        20.5556643500       16.3973872068       31.5985710918
  C        20.5284240765       16.4531979467       30.2003299682
  C        21.4762733635       17.2127503230       29.5018007643
  C        22.4569071265       17.9046159264       30.2286811005
  C        22.4728042587       17.8360093459       31.6202267150
  C        27.4936555598       19.4765896672       31.5978405630
  C        26.3697863094       20.2080402118       30.8490940338
  C        25.6353447106       21.2225512405       31.4948443841
  C        24.6004804332       21.9022664998       30.8545295378
  C        24.2569548340       21.5804983914       29.5296785512
  C        24.9765109576       20.5812937655       28.8712820516
  C        26.0157733371       19.9093163111       29.5255048733
  C        16.4392026584       23.5937976330       34.5735334825
  C        17.1271742507       22.7125571508       33.5205860932
  C        18.4687808741       22.9541714861       33.1718211054
  C        19.1354391684       22.1798544750       32.2233183329
  C        18.4703997360       21.1235044071       31.5804216512
  C        17.1310836585       20.8723815624       31.9055677042
  C        16.4774625875       21.6582982120       32.8601745828
  C        12.4575262477       22.9887030954       29.8532111437
  C        13.9199319679       23.1538214101       29.4131809277
  C        14.7375599361       24.1206892070       30.0284490251
  C        16.0640696043       24.3168214167       29.6440232887
  C        16.6176991919       23.5444235584       28.6095152247
  C        15.8247010163       22.5737988907       27.9930843664
  C        14.4990838723       22.3829371974       28.3941028746
  C        20.1864160466       28.9092303254       30.5873087978
  C        20.6412557327       28.2469951674       29.2784463716
  C        20.7433351446       26.8458676004       29.1979362788
  C        21.1237125094       26.1998888970       28.0228314260
  C        21.4100813565       26.9418625618       26.8645725417
  C        21.3320085790       28.3400670714       26.9301275717
  C        20.9565623743       28.9735868400       28.1196113756
  C        17.8684361752       32.3755763272       25.0254368203
  C        17.7756546236       30.8596442351       24.7987551259
  C        17.3321394612       30.2896532043       23.5948049576
  C        17.2611005158       28.9043975881       23.4209436388
  C        17.6348014534       28.0389461117       24.4605412077
  C        18.0833141811       28.5890381956       25.6699052969
  C        18.1475402107       29.9728323601       25.8257643743
  C        16.1865415058       29.8086614644       15.9383978791
  C        16.6769788913       28.4735684850       16.5181658400
  C        16.5300757791       27.2474674664       15.8496269170
  C        16.9539178514       26.0423996965       16.4187732840
  C        17.5473564432       26.0276345718       17.6893473979
  C        17.7219523897       27.2467655044       18.3643879794
  C        17.2912424466       28.4394534257       17.7832667632
  C        20.1180233043       27.6381859399       12.4426609489
  C        20.6324837456       27.2829686489       13.8453746542
  C        20.7567078057       28.2242927425       14.8791722330
  C        21.2352733733       27.8713003200       16.1454733227
  C        21.6074765877       26.5480880897       16.4155309273
  C        21.4768123151       25.5875146184       15.3983698309
  C        20.9995057457       25.9574764352       14.1419067871
  C        15.8872364653       19.8360779796       11.4475962944
  C        16.9204404527       20.2256023142       12.5147965035
  C        17.2340903659       21.5821018610       12.7307010964
  C        18.1800981168       21.9801186162       13.6735302325
  C        18.8566969252       21.0205711803       14.4465656829
  C        18.5537998661       19.6687519798       14.2520687827
  C        17.5995975866       19.2841639819       13.3021131377
  C        22.3234525129       18.9829970238       11.0166621834
  C        22.8871350072       19.3631822657       12.3934794938
  C        23.1113097645       20.7165598305       12.7111362780
  C        23.6308762280       21.1058223544       13.9435260621
  C        23.9499681849       20.1383589685       14.9134275065
  C        23.7359568719       18.7882408137       14.6186209523
  C        23.2126728417       18.4155001980       13.3756289719
  C        13.5483653131       21.7838979260       16.6516692810
  C        14.7583339481       21.3817153447       17.5074422368
  C        14.8894868074       21.7349399382       18.8585246177
  C        16.0090312065       21.3626867159       19.6100488706
  C        17.0327501732       20.6089559459       19.0304054064
  C        16.9186796020       20.2452847366       17.6762007978
  C        15.8047708596       20.6327958080       16.9354058895
  C        32.5422976365       20.4699801039       27.4194859404
  C        31.6266940537       20.2657469425       26.2031910369
  C        30.2314991622       20.1464515234       26.3092352188
  C        29.4205400324       19.9606614075       25.1857594625
  C        29.9873064578       19.8980961690       23.9082237470
  C        31.3802039874       20.0186687603       23.7781051428
  C        32.1777376771       20.1923528292       24.9106098437
  C        34.6687526320       24.4545275311       22.3513864278
  C        33.1366457872       24.4926291462       22.4477656276
  C        32.4132670237       23.7657749321       23.4044601282
  C        31.0155691234       23.8078065559       23.4632915718
  C        30.2983495499       24.5906898984       22.5541497738
  C        31.0031017759       25.3323658254       21.5901253174
  C        32.3947001062       25.2770269022       21.5437339402
  C        32.5097745216       17.7713321283       18.6619803615
  C        30.9845966437       17.6173084726       18.7495648737
  C        30.3569673654       16.4134569236       19.0997859861
  C        28.9643301219       16.3085810334       19.1921294202
  C        28.1536232411       17.4202047788       18.9272232961
  C        28.7621350432       18.6308380256       18.5659520983
  C        30.1501124188       18.7195424089       18.4848838646
  C        26.4448725415       25.8744544421       14.1539468301
  C        26.6921938306       24.9591681749       15.3621526991
  C        27.8912084766       24.2563528052       15.5547458147
  C        28.0733251066       23.4051452716       16.6504148810
  C        27.0504335726       23.2357798950       17.5932508101
  C        25.8482544898       23.9334350908       17.4222620195
  C        25.6814533153       24.7779644276       16.3257000064
  C        27.7347253029       29.3526870048       19.4774401839
  C        26.8126370096       28.3557653975       20.1959191183
  C        26.1287189351       27.3295825345       19.5240940663
  C        25.3271524646       26.4118388484       20.2086894463
  C        25.1802815590       26.4957983019       21.5970265011
  C        25.8412474637       27.5271849475       22.2865136303
  C        26.6427710977       28.4336039568       21.5906442444
  C        23.5244428860       33.9482250403       21.5582682695
  C        22.8406221860       32.5729106974       21.5552703324
  C        23.5546879977       31.3630571049       21.5577025332
  C        22.9080645749       30.1230156235       21.5557613055
  C        21.5101880362       30.0637404540       21.5541763735
  C        21.4367151066       32.4884291163       21.5462932150
  C        20.7755452611       31.2592453846       21.5475716313
  C        25.5645282499       27.0422121245       29.8927623391
  C        25.8229535188       25.8650624539       28.9409640306
  C        25.2661637194       25.7855186194       27.6538195144
  C        25.5199403354       24.7023970141       26.8068126666
  C        26.3539076146       23.6619223256       27.2325931157
  C        26.9020666373       23.7091622374       28.5235559151
  C        26.6358486629       24.7956481008       29.3562400571
  C        13.0644281634       26.9974466109       20.6085375630
  C        13.6759587761       25.9121467322       21.5069257402
  C        14.8650014979       25.2641508711       21.1192790019
  C        15.4737101321       24.2980268605       21.9189838674
  C        14.8983797871       23.9410261115       23.1458267527
  C        13.7129510402       24.5683469985       23.5501632671
  C        13.1154009755       25.5380302144       22.7372910449
  S        24.2471038603       25.3263249018       22.5713791798
  S        18.7967662373       16.2492933486       23.8772768746
  S        21.3412782714       17.9562983023       18.4153163883
  S        17.3770442468       26.2939524717       24.2059294581
  S        22.0034608375       26.1048597257       25.4051966552
  S        24.6997505423       20.7288276843       16.4182315545
  S        22.9415031638       22.5208142960       28.7550035333
  S        23.0174002814       15.1965898122       22.1292148061
  S        15.6097785685       22.7540902178       24.2852769355
  S        18.4632507903       20.0201169033       19.9208199095
  S        26.3808548464       17.1905807720       19.0352604461
  S        18.3184402249       23.8764870746       28.1466589663
  S        25.8662014514       17.7084698712       26.3793265125
  S        21.3719021511       17.2204288615       27.7139120216
  S        22.4153453128       26.1034230979       17.9443669462
  S        26.8343694517       22.2714904303       26.2091157180
  S        15.1384375152       18.6204531982       22.0723786039
  S        16.4232748244       19.1424689107       26.9379202296
  S        20.1629932249       21.5605467823       15.5454026340
  S        19.3666693091       20.0011525457       30.5107508446
  S        27.3638804070       22.0782756866       18.9253467800
  S        17.8689431773       24.4750436241       18.5111832091
  S        20.5719929641       28.5322544020       21.5711245954
  S        28.5154750799       24.7803791870       22.5983188627
  S        27.5814436461       15.2696891211       23.2706509011
  S        29.0330274227       19.6696285254       22.4059513089
  H        30.4788830010        9.8234616779       18.1832522511
  H        29.2408263126       11.0861336760       18.0758234463
  H        29.1713498528        9.8723922416       19.3772857456
  H        32.1843418027        9.7872218287       19.9873915398
  H        30.9335619097        9.8895245432       21.2483127709
  H        32.2631236136       11.0636479259       21.2169854244
  H        32.2832638135       11.5198834545       18.1201798499
  H        32.3729106396       12.8298897876       19.3117951139
  H        31.1093580146       12.8552409103       18.0650658374
  H        24.2987419903       11.1995702628       15.5738835039
  H        22.7467610752       11.7840247023       16.2205190304
  H        24.2545269634       12.1142315376       17.0932678836
  H        25.6384613628       14.5737831826       14.5420410587
  H        25.9940955124       12.8316093213       14.6051842734
  H        25.9763995446       13.7946274815       16.0974799200
  H        23.5031708415       14.0046449234       13.2388563043
  H        22.3077030267       12.8788783210       13.9279819586
  H        23.8878515489       12.2828854152       13.3903662051
  H        32.9775693576       15.6614173546       18.2491995992
  H        33.0394897113       16.0891089196       19.9762071406
  H        34.3333151080       16.6114598873       18.8834417645
  H        32.5936818685       17.4973743491       16.4857700226
  H        33.9922792973       18.3621178156       17.1649759873
  H        32.4362961225       19.1938296065       16.9789958359
  H        32.5021026775       19.8063879346       19.5113556616
  H        34.0624027502       18.9671550772       19.6374135652
  H        32.7162193793       18.5197596568       20.7136370939
  H        21.6663304723       17.2455221573        9.8907992825
  H        21.3553144087       17.1066347866       11.6305452478
  H        23.0046115387       16.8896558407       10.9947616950
  H        22.9441679960       19.1596714049        8.9243897149
  H        24.2949448893       18.8960604125       10.0523251189
  H        23.5235485868       20.4898797764        9.9472363202
  H        20.5669579925       19.4455948728        9.8010384169
  H        21.0977691423       20.8047743776       10.8065297566
  H        20.2403385141       19.4454148474       11.5522356500
  H        25.0792075768       25.9432195626       12.4455315297
  H        24.3415485931       25.2624466431       13.9072719105
  H        25.4958750733       24.2925103773       12.9634237095
  H        25.8894858329       27.9562290724       13.7847713025
  H        26.8984611443       27.7325860951       15.2318259815
  H        25.1765537828       27.2956891300       15.2670319606
  H        27.4597194204       26.6507947389       12.3977417497
  H        27.9641030717       25.0060225093       12.8186322172
  H        28.5488723798       26.3918765420       13.7714683322
  H        34.8477094738       26.5722205205       21.7635679863
  H        36.3282592888       25.8771369783       22.4501826919
  H        34.9630588058       26.2948396701       23.5118310578
  H        34.6986004337       22.8923893549       20.8085789565
  H        36.1744624602       23.8846469902       20.8687826730
  H        34.6908176226       24.5385198348       20.1480871754
  H        34.9643691579       22.5087893746       23.3334027368
  H        35.0636555234       23.8978143706       24.4433070997
  H        36.3928354522       23.5570702750       23.3212603239
  H        27.9131910104       31.5210644571       19.2477789257
  H        27.2684819371       31.0345786647       20.8254002778
  H        26.2332652952       30.9498884494       19.3841949847
  H        28.4201413485       29.8726272244       17.4832417006
  H        26.7557488481       29.2612326985       17.5103221593
  H        28.1232584659       28.1367736416       17.6858135540
  H        29.8546148133       29.8989135651       19.5218589650
  H        29.5516203460       28.1694473993       19.8095552358
  H        29.2352931687       29.3513962033       21.0937784846
  H        25.4621485000       33.3092312629       20.7309620998
  H        25.4047220625       33.3192967455       22.5101962247
  H        25.5010932707       34.8448450399       21.6138738695
  H        23.4563194739       34.1740042316       19.3753718995
  H        23.6020552855       35.7093783077       20.2619298369
  H        22.0447039290       34.8607245623       20.2022109255
  H        21.9718365683       34.9023362684       22.8022597004
  H        23.5336846769       35.7428230246       22.8085943929
  H        23.3298398921       34.2327943989       23.7267542996
  H        19.4238572606       29.3403962431       11.2853967779
  H        20.6531609745       29.7715082581       12.4863439381
  H        18.9806224624       29.4382285181       12.9980624049
  H        20.8473196600       27.5273052685       10.3818843912
  H        21.4663093940       26.2261720638       11.4174023928
  H        22.1220293585       27.8666232310       11.5757650280
  H        18.4548856800       27.0599665115       11.1418805141
  H        18.0520049585       27.0400953383       12.8773503948
  H        19.0323184555       25.7384357018       12.1754079527
  H        18.1591439004       30.4236766506       15.1973670095
  H        17.8114734581       30.9979900672       16.8386255133
  H        17.0228957749       31.7700486469       15.4500959716
  H        16.3201294611       29.2533561782       13.8128267344
  H        15.2552375446       30.6282740974       14.1549890096
  H        14.7121135162       28.9843289170       14.5281640815
  H        14.7323653771       31.3543326681       16.4783267266
  H        15.4739525753       30.5612349075       17.8833307651
  H        14.2359721898       29.7092104393       16.9416259224
  H        18.0591391266       32.9677679626       22.9153158620
  H        17.5072116949       34.2558902554       23.9995227511
  H        16.3826282058       32.9750160416       23.5160239760
  H        20.0056833988       32.4889854220       24.5276612588
  H        19.6917098478       32.2463226830       26.2571324136
  H        19.4153531241       33.8390651028       25.5279362822
  H        15.9079810774       32.5229646162       26.0040093199
  H        17.0204017250       33.8546914106       26.3977242813
  H        17.2466387283       32.2574663004       27.1367635667
  H        13.6481349242       28.9639710190       19.8465033458
  H        15.0145236485       27.8487448801       20.0336915747
  H        14.2853981185       28.6048567413       21.4692625069
  H        12.3563625573       27.1881959849       18.5491416889
  H        12.0703091785       25.5822639151       19.2566030875
  H        13.7008896254       26.0461993232       18.7228604132
  H        11.3381463338       28.3100582140       20.4936286572
  H        11.8803036265       28.0228776819       22.1549129133
  H        10.9813976171       26.7609591461       21.2772287514
  H        13.7863793004       20.2468739215       11.0012783778
  H        14.6087649871       21.5984135668       11.8028118992
  H        14.1427431979       20.1674606404       12.7417863365
  H        15.6543117829       20.0586153583        9.2829901323
  H        17.3447613338       19.8652443595        9.8050986547
  H        16.5127145167       21.4142973007       10.0403343766
  H        14.9245598043       18.0837752109       10.6000999499
  H        15.2970542620       17.9052199993       12.3228557851
  H        16.5937317107       17.7797287330       11.1087248222
  H        33.9648395675       21.7748548642       26.3518977145
  H        33.9970860977       21.9485524028       28.1157811325
  H        32.6582726602       22.6496614095       27.1776511821
  H        34.1548723938       19.1982047647       26.6173755354
  H        32.9992140036       18.3352711323       27.6503547230
  H        34.2069394755       19.4205530445       28.3771211803
  H        31.1914365687       19.6266631725       28.9391408880
  H        31.0425846566       21.3899632940       28.7403109105
  H        32.4458749685       20.7024223279       29.5767034193
  H        28.6913001484       11.8503840499       24.8666864218
  H        27.1505981651       11.2203854991       25.4773672906
  H        28.6549391915       10.3374911207       25.8048516627
  H        30.4812636344       12.7028778032       26.5040476419