 720
 i =      512, E =     -3690.8899728613
 Au        23.4483371796       19.5554802912       19.5746359595
 Au        19.9396905671       21.9263369394       19.0996364869
 Au        21.1949516180       23.7341259433       21.1247903526
 Au        21.2049315231       24.4178877940       18.2097851019
 Au        22.7937626422       22.2500697567       19.2134448059
 Au        21.1024966127       19.5614471388       17.9040545763
 Au        21.3869643686       20.6585682525       21.2945550904
 Au        24.3691170876       21.4387518007       21.7801080591
 Au        18.8063344310       22.0704049076       21.8033528602
 Au        16.0836294753       18.7186928863       18.6552748920
 Au        22.6820502038       14.5846425492       18.8851520065
 Au        16.2157632085       23.8219441931       21.9097735547
 Au        24.1528409396       20.4496330275       24.7463883053
 Au        22.3262246123       25.3020752457       15.6379901781
 Au        25.8754202202       15.6231633916       17.5458988016
 Au        26.6173591433       23.3782252190       21.9436479612
 Au        27.0777430433       24.7749265160       19.2889020891
 Au        20.2591309251       27.0698060166       25.1297208798
 Au        20.6748359579       28.5543913249       21.7909659681
 Au        23.3529459715       18.8153040556       22.3773742894
 Au        25.1982869203       26.9836930578       21.5033264354
 Au        24.0807885658       24.1753783135       21.1714172844
 Au        28.6074021688       20.9395962480       21.7033778769
 Au        18.5368681709       20.4819511400       17.0662847221
 Au        22.7237979074       24.7599003626       26.3854618138
 Au        18.5028010759       24.2653760374       20.0052419589
 Au        21.0941564717       22.2915541263       16.3219670115
 Au        18.6581887677       23.4783036733       16.9767904112
 Au        24.2511871245       16.8025711891       20.2447710188
 Au        21.4013732954       17.5417479717       19.8694958679
 Au        17.1212447967       21.5809677358       19.3476104201
 Au        23.2127400251       17.3015764085       17.6406900456
 Au        25.5440930097       21.6014219542       18.8187290714
 Au        24.2267944762       24.5888759312       18.3906826261
 Au        25.9504952773       19.2216487846       20.9186014067
 Au        19.0746963759       19.3215765667       19.9522821139
 Au        19.3043174325       26.4204372568       17.2264263806
 Au        23.6659657384       20.6795015974       16.8521536583
 Au        25.6302765243       18.8827782269       17.8948673599
 Au        20.6315881091       18.0766385365       15.3651761403
 Au        22.5858800494       26.2294329386       20.0479802116
 Au        15.6935046556       21.4706895409       16.6468636437
 Au        25.8918242933       17.5671987365       23.3687462389
 Au        24.5942571025       23.3671048606       23.8542761801
 Au        22.1254581296       25.8656513608       23.0184764677
 Au        20.0192640324       19.1985117891       23.4370235412
 Au        19.4942474215       24.9114802422       23.0355679396
 Au        21.6506235134       23.2349366450       23.9303727459
  C        30.6417875084       22.2635090899       13.3870327102
  C        31.8515720274       23.2123394476       13.2845778850
  C        31.1508739427       20.8089316766       13.2343041874
  C        29.6723903367       22.5903716056       12.2261195502
  C        25.0929218136       24.6890538274       10.6202334453
  C        26.6329928604       24.6697875961       10.6488846019
  C        24.6259789031       26.1377501468       10.9055200268
  C        24.6262499427       24.2683191042        9.2052577087
  C        18.6176179743       22.2924563469        9.8706597777
  C        19.6233010148       21.7615151936        8.8310203539
  C        17.1991932203       22.2282405374        9.2533233009
  C        15.1348649105       24.7812582870       28.9964901921
  C        14.0074909375       23.7203300662       28.9513557724
  C        16.2714749299       24.2780386398       29.9188483060
  C        14.5601198038       26.0747601276       29.6054917264
  C        19.9471388474       28.1883750330       32.2067843345
  C        21.0614842607       29.2519253279       32.3606286774
  C        18.5859633862       28.8856193748       32.3935640158
  C        20.1014809899       27.1213225617       33.3179966824
  C        22.4933618435       11.5944486921       25.3602624623
  C        21.9929395994       10.4430617392       24.4544687429
  C        23.3379911117       10.9843382444       26.4954577954
  C        21.2768471338       12.3132764358       25.9936385000
  C        22.1867780745       11.1013061378       13.8430910393
  C        23.4034385110       10.5573728524       13.0700090116
  C        20.9248818220       10.8891086750       12.9719527266
  C        22.0445570298       10.2913344014       15.1552481528
  C        16.4851010695       13.9358360541       15.6054387573
  C        16.2958305369       12.4254044839       15.3672132076
  C        15.1239822848       14.5350255709       16.0371534381
  C        16.9294269458       14.5866800543       14.2726375233
  C        16.7035439943       12.2776491791       22.2000090228
  C        16.8391902044       11.3737207761       20.9512167684
  C        15.3069610910       12.0633206714       22.8339958795
  C        17.7712200624       11.8440555670       23.2227870007
  C        26.9354705133        9.5685615584       21.6403426596
  C        27.2880882745        8.2850522700       20.8502279307
  C        25.8571274796        9.2390455041       22.7018144681
  C        28.2022060339       10.0469190115       22.3743409707
  C        22.5015301105       16.0789476257       29.3932735444
  C        21.2401227683       16.2377758042       30.2636741909
  C        22.9775511757       14.6097225996       29.4976236757
  C        23.6007129794       17.0136703832       29.9542473154
  C        21.0784350497       21.8168320881       31.2239706521
  C        19.6626417378       22.3070886746       31.5839575395
  C        22.0986577544       22.8339389246       31.7908668927
  C        21.3024867140       20.4409631932       31.8974018907
  C        28.0619734849       18.2721769825       30.4214693558
  C        27.0044856697       18.7934211345       31.4245998896
  C        28.2933705813       16.7749422479       30.7015958950
  C        29.3962850576       19.0235762590       30.6524834339
  C        30.8847439289       14.3225848233       23.7635214088
  C        31.0942589468       13.0498476239       22.9214486250
  C        29.9834326491       13.9653540150       24.9709871896
  C        32.2673073189       14.7899959185       24.2802099007
  C        28.3812270215       28.9483380086       14.0055448404
  C        28.2401597483       30.2577287342       14.8174720781
  C        23.2646043521       22.0623483651       13.6103141101
  C        28.0023232107       29.2245653618       12.5292317883
  C        21.0147248235       16.9281449952       27.4599056606
  C        21.3647039120       33.0572445819       14.0470973644
  C        22.3704281982       32.1622752395       11.9381192272
  C        23.7204261235       32.1479048689       14.0473888825
  C        25.3980394111       32.9190909416       18.6164529722
  C        25.8986890297       33.4026548626       20.0003750350
  C        19.4325498174       19.6122912782       12.5414460929
  C        24.6854183347       34.0894633403       17.8968178226
  C        31.0061675890       31.1108463121       20.2973517483
  C        31.8451472736       31.3424206332       19.0258861952
  C        30.2790535203       32.4331793930       20.6484597156
  C        31.9672056674       30.7408875113       21.4522558889
  C        33.2772400014       25.8450009552       19.3216869265
  C        33.2389616413       27.3804049107       19.4262565450
  C        34.6593432925       25.3651305933       19.8271698216
  C        33.1149817766       25.4530027500       17.8323290944
  C        28.8639607675       28.7365554512       26.3997559796
  C        30.1843554660       28.4623992729       25.6543178449
  C        29.2008182668       29.0653358458       27.8744531341
  C        28.1826519632       29.9635120124       25.7452454164
  C        24.4160146979       33.8558946949       24.7362845642
  C        22.6977133232       33.2467489946       26.4512597081
  C        21.9917827632       33.5939137104       24.0758964722
  C        29.9029176099       22.4015207479       14.7262413494
  C        30.3187407964       23.2797217610       15.7406144537
  C        29.6455719051       23.3633978305       16.9630491436
  C        28.5143694984       22.5684249813       17.2030981288
  C        28.0760855188       21.6931344716       16.1978475062
  C        28.7652494869       21.6151957460       14.9869832713
  C        18.6354780898       21.4765157482       11.1714407207
  C        30.1518409608       25.2541647800       21.5374437765
  C        30.1294230191       23.8563456830       21.6330854881
  C        31.1246837786       23.1204256664       20.9699766525
  C        32.1152497347       23.7753798412       20.2407945014
  C        25.6127653201       25.8962643017       15.5015889268
  C        26.9859988454       25.6221448950       15.4150740737
  C        27.8757886659       26.6000256963       14.9572676166
  C        27.4370931215       27.8754065149       14.5680910929
  C        26.0576960512       28.1356802485       14.6788850781
  C        25.1574728076       27.1736126751       15.1370074499
  C        27.8787383783       28.0824122244       19.8073619750
  C        28.6886577713       28.4358925184       18.7187584043
  C        29.7085061796       29.3814246712       18.8765285689
  C        29.9542174648       30.0069853137       20.1103111347
  C        29.1494827192       29.6128914331       21.1954068837
  C        28.1314738177       28.6691107048       21.0561439106
  C        23.2747387015       16.3010427334       26.9734203145
  C        20.8178364292       17.2666543133       26.1178114177
  C        21.4758410427       29.5830539815       12.9085966015
  C        21.7720752404       30.5777247640       13.8529281264
  C        21.5848924586       30.2518278652       15.2101103060
  C        21.1279497410       28.9971043331       15.6113646554
  C        22.5983315339       29.6247016912       19.3326819100
  C        23.7616547053       29.4068442761       18.5848950429
  C        24.6534436875       30.4585188007       18.3402655639
  C        24.4153868614       31.7558265977       18.8184938167
  C        23.2236383061       31.9605735662       19.5409337205
  C        22.3292003569       30.9233254692       19.7990687618
  C        23.8167563831       28.8516794063       23.9292895934
  C        23.9777097736       29.8742928788       22.9819998563
  C        17.7971982918       21.1372326358       13.4480658043
  C        23.3670416553       31.5685669737       24.6444240857
  C        23.2054948010       30.5320610840       25.5764598254
  C        23.4272159390       29.1952167170       25.2325388113
  C        23.0923216052       16.6337026285       25.6321934296
  C        27.2930195632       25.2885466949       25.6014355195
  C        28.2014504238       26.3500238169       25.6620041051
  C        27.9045230982       27.5387706994       26.3464489470
  C        26.6540049661       27.6108528860       26.9879373447
  C        25.7386407876       26.5603368206       26.9387050430
  C        20.3781366414       26.2352813264       28.3083758845
  C        21.4108448200       26.1974122047       29.2564771569
  C        21.2528745028       26.8274043748       30.4916693379
  C        20.0726923490       27.5127469576       30.8334643182
  C        19.0497685609       27.5360365727       29.8717208689
  C        19.1907430887       26.9079894088       28.6301351163
  C        16.6236517694       25.2865027408       24.9130312054
  C        16.0101765294       26.3608725467       25.5689664713
  C        15.5443078433       26.2089287590       26.8816107816
  C        15.6718749056       24.9951557075       27.5735490319
  C        16.3103075198       23.9366695722       26.8979241037
  C        16.7877061444       24.0732013858       25.5960218037
  C        21.7299741635       21.4044562909       26.9117596240
  C        20.4767111959       21.8042849585       27.3984933660
  C        20.2657508416       21.9403820463       28.7735619494
  C        21.2803408083       21.6785079748       29.7074939909
  C        22.5269488742       21.2706250455       29.1976411306
  C        22.7573288123       21.1357382766       27.8290069444
  C        17.0224739049       16.4905859596       21.0384258616
  C        17.9033995152       15.9532731845       21.9866301838
  C        17.8116504851       14.6064382462       22.3534056097
  C        16.8496459065       13.7518697203       21.7948178427
  C        15.9881909606       14.3058399842       20.8281614274
  C        16.0680602315       15.6443555726       20.4493969683
  C        19.4674181418       14.8588893050       18.6762138439
  C        18.7958477951       15.8772755040       17.9885082676
  C        22.2447351605       16.4373052909       27.9225969244
  C        17.5321285735       14.2284707917       16.6894730933
  C        18.2097874432       13.2208408948       17.3952743002
  C        19.1618453061       13.5238883997       18.3738603318
  C        22.5313625287       15.3377279350       14.8814972962
  C        23.5702873972       14.6996640743       14.1904716340
  C        23.4644864340       13.3460132954       13.8508737512
  C        23.0796271576       23.6607782012       11.7955855704
  C        21.2980930057       13.2554880915       14.8743086043
  C        21.3864735963       14.6023238355       15.2221385361
  C        25.2800784128       12.5573626302       18.9056873066
  C        26.4345447120       12.8469737913       19.6385390156
  C        26.9718907053       11.8916291232       20.5092867705
  C        26.3845573088       10.6292640762       20.6766353955
  C        25.2281930203       10.3554846782       19.9212439851
  C        24.6803923649       11.2942993163       19.0501593230
  C        24.6868747867       14.5085163564       22.9350217373
  C        25.3344321223       13.8351477092       23.9824137864
  C        24.6409023549       12.9017135408       24.7583846267
  C        23.2906921674       12.5987605210       24.5157290396
  C        22.6678452411       13.2703035739       23.4495394665
  C        23.3438209364       14.2112585914       22.6725553524
  C        29.0290756576       17.6052145460       21.5356737307
  C        29.4164728882       17.7643709873       22.8760872595
  C        30.0025095547       16.7046332434       23.5660425446
  C        30.2283909817       15.4544529460       22.9594738366
  C        29.8302256928       15.3127614295       21.6212393578
  C        24.6571864022       22.1124052474       13.4795534939
  C        26.7379831641       19.0900667091       26.3266882649
  C        26.8530522364       20.1239594922       27.2732453154
  C        27.2674271585       19.8381950924       28.5727813757
  C        27.5852146939       18.5293282246       28.9844485106
  C        27.4608087658       17.5127614352       28.0253068036
  C        27.0440052520       17.7812589218       26.7157255389
  C        18.9755016501       23.7668693964       10.1781607676
  C        29.8581045485       28.5106590385       14.0526503901
  C        22.2970847912       31.9676004212       13.4646996609
  C        26.6236801703       32.5090500690       17.7783786721
  C        31.1549853744       25.8986228056       20.8031104816
  C        32.1634880007       25.1781984332       20.1431232829
  C        20.8497936404       28.0138600092       14.6519538189
  C        21.0224737593       28.3166543193       13.2952660207
  C        23.7596747074       31.2031819615       23.3439973977
  C        26.4286464032       18.1321516199       14.5437624928
  C        24.4787654603       23.7425455004       11.6618977553
  C        25.2481152734       22.9420148988       12.5196625855
  C        26.5421659862       18.1763146965       13.1544076544
  C        21.8564780454       17.1260864638       25.1865026231
  C        18.6087277753       20.0029967460       13.6058832820
  C        17.8482336615       15.5598111434       17.0155353375
  C        22.3304598805       12.5914952483       14.1844655022
  C        29.2385651626       16.3656347826       20.9150303463
  C        23.1203333579       33.0456813650       24.9832903428
  C        26.0459130258       25.3878524580       26.2311365027
  C        17.8141573845       21.8523302879       12.2506757055
  C        22.4747170176       22.8406295391       12.7459234599
  S        20.0159670475       29.1157135499       23.9726498662
  S        26.4432219185       27.0548049513       19.4898395636
  S        20.4669441708       25.3527423042       26.7479451291
  S        24.9424452016       23.9815877150       26.2084808216
  S        28.9281143461       23.0540909428       22.6899415357
  S        18.2316168986       26.6214924594       19.3363016575
  S        22.4485653515       20.9628066011       14.7529696116
  S        21.9078507629       21.1358028319       25.1551686742
  S        18.4864119809       19.0108956304       15.0916695800
  S        27.8004674169       22.5578268109       18.8431535654
  S        18.3922316872       20.8536677727       23.9085203662
  S        17.1600520935       25.5510508151       23.2236649574
  S        16.2409749532       23.7732501103       16.6372992181
  S        15.1216306872       19.1596242859       16.5353388642
  S        27.3698055983       17.4130432500       17.1029474209
  S        15.1459828896       22.0765049077       20.7256133854
  S        21.5808599024       17.4212986688       23.4408688903
  S        20.6584978199       15.1891550882       19.9752365691
  S        22.7583865507       17.0723840809       15.2587842782
  S        28.3586776663       18.9229293314       20.5359118475
  S        25.6375015387       15.6682186973       21.9595752977
  S        17.0068830852       18.2534851058       20.7745114911
  S        20.2785658467       26.3609436010       15.0646511686
  S        24.5426119784       24.5438656332       15.9700859580
  S        24.5400249901       13.6819113176       17.7249104751
  S        21.3981926038       28.3139817385       19.5651010268
  S        26.3543547196       19.5316290066       24.6350503455
  S        24.1681714857       27.1306326004       23.6121424385
  C        12.9739907830       16.6188551823       24.7798579695
  C        12.0829820799       18.3709153291       23.2286953733
  C        12.8909090155       18.1368722785       24.5290693619
  C        15.4693293805       18.0402019740       24.4166884431
  C        14.2771132786       18.7789449740       24.3780522631
  C        12.1444610876       18.7853604363       25.7198280463
  C        16.7143976063       18.6488220397       24.2398917875
  C        14.3920769722       20.1653733513       24.1677713117
  C        16.8103027118       20.0279039070       24.0112448092
  C        15.6280771206       20.7847701888       23.9902100942
  C        26.4464742557       16.9360053061       10.3519790176
  C        28.9503958322       16.9507436593       10.3852056465
  C        27.6914663925       17.6422078629       10.9426545417
  C        27.6235633777       17.5822171972       12.4757396516
  C        27.7059120203       19.1198956962       10.4815337413
  C        28.5959726639       16.9431016650       13.2606227019
  C        27.4057957531       17.4798979660       15.3094131239
  C        28.4954495650       16.8891864731       14.6558489884
  C        19.4423587527       20.3422295488       11.3490786294
  C        13.7965642047       31.7658652107       23.0886863279
  C        13.6406285940       31.2597154116       25.5336036099
  C        14.0557038667       30.6846190993       24.1656774032
  C        13.1722634187       29.4477230824       23.8724374180
  C        15.5347612769       30.2718922832       24.1296334376
  C        16.3848848555       30.3821877566       25.2419194083
  C        17.7273247367       29.9973472753       25.1783937248
  C        16.0923652359       29.7518250924       22.9471688436
  C        18.2625688485       29.4816668110       23.9889131349
  C        17.4295287560       29.3592724617       22.8685810148
  C        13.1511947569       30.8579133159       18.4253894791
  C        12.7921973644       29.3504640969       18.4186747623
  C        11.7622726996       29.0875465234       19.5349164575
  C        14.3929385737       27.8776380135       19.8147974047
  C        14.0844144007       28.5439062633       18.6172318839
  C        15.6188303132       27.2308591840       20.0089055551
  C        15.0538145550       28.4957528855       17.5989099954
  C        12.1328281529       28.9996577570       17.0644834126
  C        16.5827055695       27.2167442951       18.9898203042
  C        16.2732364477       27.8429022504       17.7703898948
  C        15.2865989948       25.9125352406       10.1476115719
  C        14.6336145618       27.9006123343       11.5578868094
  C        16.2287759166       25.7481175094       13.0637957276
  C        14.4398522972       26.3773106026       11.3561434048
  C        16.6758873742       25.1326069370       14.2346927374
  C        14.8956261754       25.6431384828       12.6261735177
  C        12.9560352787       26.1184958304       11.0312820051
  C        15.7856657069       24.3880770305       15.0224030475
  C        14.0277711584       24.8680227562       13.4133291770
  C        14.4567245863       24.2523072898       14.5922239659
  C        10.3776263605       23.1751535585       15.9579377612
  C        10.2700276565       25.4103050455       17.0674723685
  C        10.3451954913       23.8948975238       17.3278507368
  C         9.0700364752       23.4711727203       18.0974393103
  C        11.5820717178       23.5030842198       18.1504381801
  C        11.8205929517       22.1483809623       18.4497620294
  C        12.5047443690       24.4382422620       18.6450983378
  C        12.9129420069       21.7487431002       19.2161531213
  C        13.6104034038       24.0519660854       19.4117093815
  C        13.8192001828       22.7024568793       19.7113611897
  C         8.5377425035       17.4037929249       17.8296346833
  C         8.7673005117       17.2228422633       15.3430575689
  C         9.0455995155       18.1281997875       16.5682861513
  C         8.2524241325       19.4481145565       16.4161642251
  C        10.5496666456       18.4320959620       16.6365621784
  C        11.3570797138       18.0529556250       17.7195788202
  C        11.1831786584       19.1030390168       15.5721214975
  C        12.7327193160       18.3114680986       17.7388374455
  C        12.5516264447       19.3695692580       15.5777327828
  C        13.3454641123       18.9683474467       16.6658781531
  H        32.3447194373       23.0779982267       12.3126367048
  H        32.5983904631       23.0099068380       14.0644909722
  H        31.5525957059       24.2670505964       13.3603967800
  H        31.6714144727       20.6865075577       12.2742640601
  H        30.3278839922       20.0823716177       13.2675718325
  H        31.8540404047       20.5530739241       14.0384532853
  H        30.1846007584       22.4865890873       11.2594300860
  H        29.2967099452       23.6197970746       12.3035206102
  H        28.8058940968       21.9159593612       12.2184358387
  H        27.0243920045       25.3616057885        9.8911783576
  H        27.0358728214       23.6725592525       10.4250503903
  H        27.0235603327       24.9887243531       11.6254323958
  H        25.0526273897       26.8277313358       10.1642279630
  H        24.9461021317       26.4646151373       11.9048089960
  H        23.5331182274       26.2302968584       10.8574372480
  H        25.0427352288       24.9457761554        8.4467984211
  H        23.5323993300       24.2948303798        9.1133499441
  H        24.9568948390       23.2475824975        8.9694783325
  H        19.5784822942       22.3795917133        7.9244185016
  H        19.3991353599       20.7273536672        8.5358417895
  H        20.6553339321       21.7959984869        9.2070481650
  H        17.1543383925       22.8221843547        8.3298465430
  H        16.4407438151       22.6198258367        9.9440597055
  H        16.9260211735       21.1930418666        9.0078277708
  H        13.1758815176       24.0565996275       28.3173906509
  H        13.6149958442       23.5350245007       29.9608939005
  H        14.3687012479       22.7645297745       28.5492746027
  H        16.6860167218       23.3224539845       29.5718431415
  H        15.8910296696       24.1219544229       30.9376918854
  H        17.0954284622       25.0034397527       29.9662799314
  H        13.7110462773       26.4605222856       29.0249294902
  H        15.3197241251       26.8662375863       29.6724831274
  H        14.1987504772       25.8748466120       30.6230101584
  H        20.9726531845       30.0285731965       31.5889537411
  H        22.0620396590       28.8082604407       32.2753674172
  H        20.9935597533       29.7377911399       33.3438422771
  H        18.4263681231       29.6777385432       31.6491652515
  H        18.5433059119       29.3523089244       33.3866367297
  H        17.7498252930       28.1760104541       32.3259739750
  H        21.0731860574       26.6133487136       33.2622891814
  H        19.3185761055       26.3547993701       33.2382619852
  H        20.0236062832       27.5877608914       34.3098588578
  H        22.8357541018        9.9070616263       23.9964689539
  H        21.3519829627       10.8142466474       23.6438266945
  H        21.4068055311        9.7224938788       25.0415523440
  H        24.2066321804       10.4329442683       26.1096087087
  H        22.7267600379       10.2757769819       27.0700696363
  H        23.6983014769       11.7524497295       27.1939307748
  H        20.5986872740       12.7145135208       25.2289621428
  H        21.5993357430       13.1533648230       26.6244356946
  H        20.7021848289       11.6127047471       26.6150281410
  H        23.5465703094       11.0799582992       12.1142732298
  H        23.2535819706        9.4928497943       12.8461099724
  H        24.3305999390       10.6455668682       13.6527767407
  H        20.9999396440       11.4477220955       12.0291156784
  H        20.0137752476       11.2225085028       13.4861212308
  H        20.8018223130        9.8244555489       12.7294509376
  H        21.9304067042        9.2208806852       14.9349377924
  H        21.1691027217       10.6110045155       15.7355487358
  H        22.9324797463       10.4183041986       15.7901380361
  H        15.5410289297       12.2668852074       14.5855136222
  H        15.9487767204       11.9066258336       16.2715043135
  H        17.2248621153       11.9442625445       15.0303609270
  H        14.3616769793       14.3435061067       15.2692706436
  H        15.1858225532       15.6217982777       16.1833259864
  H        14.7792230634       14.0875033110       16.9793205809
  H        16.1846954642       14.3925372985       13.4884561840
  H        17.8931576582       14.1796156462       13.9367565869
  H        17.0412862070       15.6750095018       14.3662092169
  H        16.0789603946       11.6053158305       20.1940134773
  H        16.7229879357       10.3175325426       21.2307325930
  H        17.8242173902       11.4998877642       20.4817138474
  H        14.5017206226       12.3243239845       22.1347653576
  H        15.1838284396       12.6833234682       23.7325032839
  H        15.1732961249       11.0116420612       23.1234542889
  H        18.7878985721       11.9563189951       22.8205332653
  H        17.6309934837       10.7854467723       23.4785286606
  H        17.7053345506       12.4206137402       24.1555809300
  H        26.4130613094        7.8721820776       20.3315522261
  H        27.6696059312        7.5106751951       21.5301067952
  H        28.0601007981        8.4872108140       20.0953880317
  H        24.9425376493        8.8427621256       22.2414178183
  H        25.5825052267       10.1375788143       23.2720619960
  H        26.2324051955        8.4826785449       23.4049445654
  H        29.0182255934       10.2768661890       21.6755354337
  H        28.5584983407        9.2574388529       23.0492928083
  H        28.0070385547       10.9401982366       22.9836870217
  H        20.4217137802       15.5910440639       29.9187877505
  H        20.8793299763       17.2757138791       30.2731470555
  H        21.4692069644       15.9585832516       31.3007146445
  H        23.8967645756       14.4369816938       28.9228099663
  H        22.2108062423       13.9193057062       29.1196459621
  H        23.1837625834       14.3486436735       30.5449121140
  H        24.5382889513       16.9245852746       29.3892646203
  H        23.8109160491       16.7677926960       31.0047163453
  H        23.2815124971       18.0640438602       29.9027639443
  H        19.4514189270       23.2957062977       31.1530783053
  H        19.5687851156       22.3927864516       32.6747158469
  H        18.8878029400       21.6080218439       31.2406334367
  H        21.9511049336       23.8253452767       31.3407196914
  H        23.1337892747       22.5249220657       31.5961545386
  H        21.9770279489       22.9295128829       32.8788078268
  H        22.3118806973       20.0535051184       31.7058464923
  H        20.5830492360       19.6989654859       31.5242949242