 535
 i =      697, E =     -3277.8494182295
 Au        21.6636491978       19.9441527570       20.5373519153
 Au        24.3214104030       20.7550627531       21.1604245330
 Au        23.0850460922       23.4643777678       20.3404596297
 Au        21.7023919406       24.2146760306       17.8715527024
 Au        22.8316707967       21.6545850670       18.2167724028
 Au        22.3806765266       19.1124485665       16.5986138568
 Au        24.6204329199       20.9040640692       16.2356650257
 Au        24.3206330203       19.3303760985       18.5966397092
 Au        23.4557459885       16.3880030856       19.3671678088
 Au        21.2503952929       14.9435573330       18.2135386895
 Au        18.5422074477       15.9758370357       18.3300922842
 Au        19.8082320019       17.4882927879       16.2480604306
 Au        21.0744170412       17.7351532451       18.8660453175
 Au        17.8605617072       21.5523167880       20.4616957192
 Au        19.6961832862       22.1051798114       22.4473277214
 Au        22.2822558433       20.7180372890       23.1929318225
 Au        23.3730191536       18.3117014977       22.2049550602
 Au        24.0230214020       14.4985420636       21.5026740720
 Au        24.0694834633       13.8547279279       17.9017328206
 Au        22.3350371984       16.4044289288       15.7270178304
 Au        21.2602326915       18.5682197039       14.1001002041
 Au        23.9097096554       19.8262163684       13.0815800069
 Au        19.9361974700       14.5610949971       14.8352661212
 Au        18.5188345843       17.5937700910       13.3364050667
 Au        17.4110780155       16.1645369639       15.6971655065
 Au        17.3928165202       18.3678081885       17.5793535876
 Au        16.8241188769       21.0719610428       17.9023381036
 Au        18.9479863417       22.7673444431       17.2161130052
 Au        21.0825738747       21.6735748059       15.7490202601
 Au        20.0734191013       20.2751498079       18.0204597186
 Au        18.6273451849       20.2712669093       15.6085055864
 Au        20.4733455892       22.5667505840       19.8081494632
 Au        18.3478322905       24.1792855816       20.9606163338
 Au        16.0401043394       23.7458129892       18.8694307698
 Au        14.6569334114       19.4392509641       17.4329171593
 Au        15.8821190934       19.1657673979       19.9004746783
 Au        14.9804008989       17.2066250335       22.8899303256
 Au        17.3537007107       16.9668901168       21.1785610642
 Au        18.9770268170       18.9730834062       20.2550479248
 Au        17.2012892034       19.3853269175       22.4985990726
 Au        15.4841676742       22.1485303308       22.0656056122
 Au        23.7990441682       19.3848158539       25.2728004160
 Au        24.5336530676       22.6451741355       23.6633039067
 Au        18.1690912985       15.5282474010       23.6015195289
 Au        21.1470201480       15.7568163914       20.9082932367
 Au        14.2522542740       17.2406965225       15.2818379806
 Au        19.9775188894       26.5380069834       19.2676672330
 Au        23.7688550696       23.7279856374       15.6781947690
 Au        25.6871341493       23.1476239684       18.7970333983
  S        25.6458475320       17.4768117447       19.4144286365
  S        24.0152835703       16.1780612567       23.1773759538
  S        23.9834184241       12.6702310040       19.9637665618
  S        24.3074790542       14.9746451914       15.8259187973
  S        25.8978548306       20.1234030608       14.3011997288
  S        21.8606370772       19.6003903573       11.9365284926
  S        20.6278370867       13.1721836714       16.6311019938
  S        19.8973510987       15.7386491771       12.7616187775
  S        17.1585588570       19.4805889871       13.8393870997
  S        13.9469633273       18.8533554649       21.5279873214
  S        16.6620017084       21.3163843444       23.9591249851
  S        14.2489333545       22.8807637557       20.1716584996
  S        22.2157105866       17.7429393987       25.7811160088
  S        25.5968091075       20.9371976403       24.9122736786
  S        23.5221826841       24.4479616755       22.5096445743
  S        20.4737603410       15.2476076794       23.1663618280
  S        15.8695841558       15.4134433414       24.1741897713
  S        17.6160551224       14.7295873235       20.2050259634
  S        15.2691529381       15.1279729092       15.1148916745
  S        13.2992322031       19.3910126618       15.4383885226
  S        17.5786171320       24.7694685174       17.3862945152
  S        18.9222612184       26.4846381688       21.3712886091
  S        21.0118323111       26.4778153632       17.1523322783
  S        22.3993152453       22.7364707974       14.0070283109
  S        25.1245408225       24.8594857223       17.2543938288
  S        26.4307022933       21.9408167735       20.6917165174
  S        20.5196111722       21.7177497524       24.6379228334
  C        26.8967420203       21.3285739697       13.4352094563
  C        28.1754729935       21.6445079046       13.9528156010
  C        29.0131206971       22.4637653698       13.1815345178
  C        28.6356340705       22.9840444361       11.9363806062
  C        27.3500915338       22.6826590711       11.4643673607
  C        26.4937926659       21.8656884273       12.2020278601
  C        29.5912622747       23.8226418912       11.1213748372
  C        28.6379795751       21.1389438785       15.2916851864
  C        22.0116765627       18.2910147442       10.7250649197
  C        20.9235694900       18.0660667014        9.8470124127
  C        21.0525918807       17.0517534685        8.8875794565
  C        22.2065256483       16.2662168376        8.7580684348
  C        23.2766115127       16.5309844690        9.6228461607
  C        23.1811167945       17.5301224872       10.5916708172
  C        22.2762556487       15.1630798844        7.7296863648
  C        19.6563268066       18.8732305617        9.9220638462
  C        19.3246586683       12.1284767340       17.2702825122
  C        19.7044495601       10.8925471780       17.8465471728
  C        18.6841558959       10.0476812891       18.3112184965
  C        17.3245333339       10.3759356250       18.2255090777
  C        16.9821971920       11.6120554496       17.6579594686
  C        17.9696763212       12.4763508195       17.1888811392
  C        16.2584248712        9.4258086254       18.7141094528
  C        21.1456960888       10.4693982655       17.9737965248
  C        17.3000008143       20.5743322499       12.4254202025
  C        16.3037093072       20.4942980272       11.4237175891
  C        16.3867570840       21.3911101752       10.3469626006
  C        17.4051234995       22.3479131609       10.2305433144
  C        18.3750726657       22.4037048727       11.2415962379
  C        18.3233764926       21.5268691980       12.3239036393
  C        17.4680593652       23.2777548244        9.0421294711
  C        15.1827930998       19.4885195526       11.4864375364
  C        13.2385063915       24.2501166438       20.7396823712
  C        12.0461323607       23.9425149751       21.4378133589
  C        11.2137911087       25.0083555163       21.8112045838
  C        11.5116867501       26.3464812146       21.5177834936
  C        12.7048171805       26.6177172195       20.8346837977
  C        13.5591363706       25.5835615316       20.4523771465
  C        10.5630992002       27.4553374707       21.9066715933
  C        11.6687948602       22.5281876815       21.7930041287
  C        15.4171581758       20.9496828461       25.1950418214
  C        14.7312069050       22.0150104217       25.8278860495
  C        13.8443957010       21.6977714188       26.8680656950
  C        13.6273143532       20.3854972735       27.3108057994
  C        14.3382405559       19.3545234965       26.6816843774
  C        15.2183080783       19.6342471550       25.6366269743
  C        12.6461764840       20.0915751378       28.4207687982
  C        14.9319465022       23.4520453109       25.4261980586
  C        24.7640903746       25.7304366384       22.3657818851
  C        24.3192084852       27.0717165768       22.2932733550
  C        25.2900342828       28.0839506755       22.2444678320
  C        26.6663900915       27.8202676129       22.2726913875
  C        27.0755563658       26.4815574108       22.3565993815
  C        26.1384232098       25.4499269389       22.3970650197
  C        27.6738862893       28.9417740439       22.1910446979
  C        22.8557208255       27.4253929390       22.2963140605
  C        25.9595358346       21.5760479627       26.5483908914
  C        26.6902444967       20.7563709778       27.4416692798
  C        27.0173739025       21.2864865624       28.6991295289
  C        26.6586205583       22.5813881771       29.0983543364
  C        25.9439717534       23.3714342077       28.1875348354
  C        25.5962258686       22.8752287650       26.9309912504
  C        27.0107814071       23.0967623019       30.4736295177
  C        27.1097418070       19.3566893845       27.0790993475
  C        21.2183221160       18.4249088574       27.0894572158
  C        21.6785325889       18.5421976526       28.4254902990
  C        20.7821865852       19.0026012641       29.4018420986
  C        19.4558275223       19.3574842779       29.1117851234
  C        19.0183995617       19.2310130553       27.7858672911
  C        19.8863749877       18.7699104580       26.7947032792
  C        18.5383550429       19.8842449436       30.1907422031
  C        23.0926841707       18.1967518244       28.8079166601
  C        20.5992858547       13.4601457747       23.3149570018
  C        20.8625955697       12.9138688617       24.5920643332
  C        20.9860959787       11.5186749369       24.6933143067
  C        20.8584991736       10.6608365729       23.5927213279
  C        20.5890013272       11.2336868812       22.3411576329
  C        20.4609144140       12.6153810080       22.2038124199
  C        21.0327348964        9.1684581842       23.7456084895
  C        20.9809956573       13.7762482242       25.8208405640
  C        15.6560461713       15.7576228950       25.9196631133
  C        14.4141880750       15.4383756663       26.5165761848
  C        14.2875157915       15.6226908597       27.9026373994
  C        15.3320086873       16.1029515680       28.7050467271
  C        16.5479348588       16.4182206091       28.0814790704
  C        16.7083216916       16.2471157781       26.7071211903
  C        15.1613892594       16.2576068836       30.1974687246
  C        13.2514599453       14.9193184268       25.7116164980
  C        15.9607807841       14.1582461170       19.8378871498
  C        15.4854749385       13.0281198206       20.5435906318
  C        14.1845398390       12.5787805421       20.2605412022
  C        13.3577184915       13.1881768931       19.3088406579
  C        13.8663061883       14.2961019492       18.6134574307
  C        15.1447966293       14.7782403015       18.8801918350
  C        11.9567121764       12.6890386020       19.0493887243
  C        16.3259612929       12.3035710461       21.5628822304
  C        12.4673412094       18.0612633622       20.9070419857
  C        11.3452777349       17.9578156718       21.7667462633
  C        10.1715344871       17.3906985981       21.2490026094
  C        10.0639574309       16.9371875693       19.9269825085
  C        11.1853690699       17.0652249488       19.0968224749
  C        12.3727471250       17.6104983224       19.5837185872
  C         8.7876946029       16.3089164406       19.4201482313
  C        11.3851016570       18.4302792224       23.1960001991
  C        15.0205997851       14.5830834090       13.4254678349
  C        15.4996661594       13.3066701787       13.0455253031
  C        15.1242626289       12.8103086891       11.7882999711
  C        14.3076784272       13.5203334612       10.8991736546
  C        13.8809355260       14.7989870192       11.2839380220
  C        14.2335921505       15.3226027585       12.5271087103
  C        13.8851451641       12.9185529785        9.5806870222
  C        16.3853657056       12.4893185114       13.9432063617
  C        11.5628428938       19.2114070103       15.8369431564
  C        10.8840211808       20.2725295566       16.4810850562
  C         9.4995277087       20.1433982863       16.6698717875
  C         8.7708032646       19.0250347940       16.2422363043
  C         9.4703361404       17.9944673281       15.5981835479
  C        10.8481169851       18.0848527907       15.4002830196
  C         7.2847256832       18.9278224645       16.4901148694
  C        11.5992142111       21.5055513981       16.9636702702
  C        16.6702383160       24.9700011149       15.8476440287
  C        16.2269146402       26.2705159527       15.5146402608
  C        15.5669848759       26.4403784998       14.2863155966
  C        15.3379199568       25.3855029300       13.3927942789
  C        15.7939867173       24.1081085268       13.7516327900
  C        16.4495722870       23.9035245726       14.9637945359
  C        14.6119084870       25.6096220637       12.0880907157
  C        16.4494869918       27.4530321990       16.4232130959
  C        22.4558127130       27.5379074614       17.2072044188
  C        23.0833754989       27.8740717882       15.9836758975
  C        24.2013938545       28.7195093540       16.0294844455
  C        24.7158060569       29.2407400820       17.2247247293
  C        24.0640512873       28.9022667156       18.4180528636
  C        22.9505118587       28.0627252339       18.4089945469
  C        25.9476506687       30.1133457358       17.2191783062
  C        22.5960726089       27.3459258017       14.6621751503
  C        17.4909294183       27.5561073387       21.3326882847
  C        16.6074524678       27.5453029767       22.4378564965
  C        15.5578841237       28.4767917801       22.4464568533
  C        15.3550098504       29.4070207844       21.4183878058
  C        16.2378859844       29.3826786018       20.3286337629
  C        17.2915244991       28.4703885587       20.2861398674
  C        14.2364586015       30.4188929286       21.4939845203
  C        16.7585626988       26.5654572928       23.5699922529
  C        27.8044270845       20.8757806608       20.2668265019
  C        28.8080623512       20.6833350274       21.2460498687
  C        29.9021820884       19.8692719650       20.9091471480
  C        30.0364141223       19.2513363656       19.6595712896
  C        29.0286517262       19.4687877144       18.7086974026
  C        27.9288582563       20.2698703080       19.0080509565
  C        31.2290566404       18.3841772695       19.3360485721
  C        28.7405629317       21.3163022086       22.6118037381
  C        26.6423343463       25.3991493006       16.4659522930
  C        27.5359340928       26.2020148895       17.2158301781
  C        28.6599146952       26.7191288334       16.5548868402
  C        28.9207676385       26.4860824383       15.1970422916
  C        28.0201740681       25.6828419952       14.4862397922
  C        26.8984123214       25.1394681427       15.1132870028
  C        30.1246416911       27.0999923049       14.5226495497
  C        27.3137976737       26.5010546339       18.6726871285
  C        21.4451898897       24.0549532315       13.2484435906
  C        21.9152769793       24.5831895000       12.0224540177
  C        21.1419826336       25.5738128450       11.3972591458
  C        19.9366140523       26.0493064156       11.9331549776
  C        19.4929560013       25.4994194720       13.1440422476
  C        20.2391659213       24.5165952280       13.7927486631
  C        19.1476724117       27.1321636904       11.2362809137
  C        23.1971319555       24.1105502338       11.3857392013
  C        19.1283073179       14.7719585268       11.4656152109
  C        19.8057320468       13.6262653834       10.9814844028
  C        19.2795232756       12.9889091034        9.8485256362
  C        18.1377516357       13.4473369719        9.1749868868
  C        17.4859118384       14.5762656230        9.6864231844
  C        17.9696139825       15.2261071772       10.8222461323
  C        17.6458400548       12.7504398554        7.9284621765
  C        21.0563301316       13.1003124908       11.6294261555
  C        24.2775431603       13.7385033562       14.5336498155
  C        24.8120130216       14.0935829037       13.2718676805
  C        24.8886294100       13.0986404371       12.2862716382
  C        24.4654662319       11.7795113804       12.5021698375
  C        23.9403766266       11.4580811789       13.7615463322
  C        23.8432420757       12.4245283137       14.7627300949
  C        24.5521888280       10.7470427382       11.4037917192
  C        25.3037063700       15.4871720687       12.9885045000
  C        25.5344683010       11.7923301984       20.1664001815
  C        25.7233544261       11.0115406755       21.3315142684
  C        26.9087245966       10.2682566852       21.4361389716
  C        27.8965873981       10.2623395418       20.4417311654
  C        27.6747310277       11.0372115552       19.2950989348
  C        26.5114353543       11.7951526802       19.1603305803
  C        29.1674006266        9.4651409674       20.6142409662
  C        24.7057428139       10.9698952602       22.4390773974
  C        25.7254395418       16.3130559732       23.7010177783
  C        26.1419776719       15.5441956760       24.8127615771
  C        27.4748103837       15.6706713564       25.2340634881
  C        28.3916440774       16.5268744541       24.6089352058
  C        27.9444867652       17.2848650922       23.5171939517
  C        26.6277179922       17.1807709964       23.0697120696
  C        29.8074039225       16.6544499311       25.1190336958
  C        25.2005581503       14.6231601168       25.5439935636
  C        20.9734059253       23.2988555255       25.3398278726
  C        21.6147676508       23.3116931176       26.6025033322
  C        21.8827123817       24.5589295950       27.1892171247
  C        21.5268573268       25.7761655552       26.5938659164
  C        20.8688200655       25.7296787333       25.3563254809
  C        20.6012980497       24.5105207245       24.7364433386
  C        21.8587536295       27.0935352127       27.2529700932
  C        21.9781946178       22.0461176697       27.3266017216
  C        26.7173162676       16.8526683954       18.1274376221
  C        27.6508508192       15.8464679822       18.4771404307
  C        28.5553595896       15.4214157756       17.4912777934
  C        28.5812686119       15.9580936162       16.1960678653
  C        27.6537966129       16.9632299844       15.8867130610
  C        26.7299268795       17.3965049574       16.8366390824
  C        29.5558098906       15.4486315759       15.1611429715
  C        27.7079076546       15.2541593686       19.8596151459
  H        29.9990038939       22.7038077124       13.5775007687
  H        27.0171067511       23.0812301582       10.5075712381
  H        25.5023455763       21.6197902196       11.8228203289
  H        29.0583892576       24.5639092416       10.5109004619
  H        30.1788144566       23.1969494425       10.4313314592
  H        30.3063772294       24.3572015010       11.7611355495
  H        29.6757224650       21.4334479359       15.4885125954
  H        28.5671284170       20.0433227694       15.3580144330
  H        28.0116926416       21.5427772965       16.1034163670
  H        20.2109878743       16.8680426237        8.2209609941
  H        24.1939752430       15.9507101602        9.5394294663
  H        24.0174601726       17.7342819230       11.2584151084
  H        21.9664303501       15.5172149797        6.7362765706
  H        21.6057262898       14.3328181174        8.0008123342
  H        23.2925989197       14.7586403647        7.6420827469
  H        18.9569409151       18.5776105672        9.1312045475
  H        19.8505573314       19.9516037720        9.8327175221
  H        19.1510650357       18.7333725813       10.8940681522
  H        18.9695913589        9.0939851954       18.7536135724
  H        15.9375626370       11.9142677000       17.6011014866
  H        17.6930848243       13.4395264921       16.7612176360
  H        15.4500074119        9.9683860455       19.2242175038
  H        16.6674250780        8.6818913593       19.4095468528
  H        15.8017735712        8.8773598753       17.8757845548
  H        21.7188163266       11.1560516470       18.6160661664
  H        21.6495283909       10.4628317331       16.9962076327
  H        21.2176272808        9.4624853747       18.4033939537
  H        15.6200614876       21.3386932923        9.5748039418
  H        19.1714764928       23.1449922737       11.1948425712
  H        19.0795459982       21.5795112037       13.1066356153
  H        16.4798872043       23.4194313449        8.5854619302
  H        18.1340450479       22.8778420068        8.2616225800
  H        17.8607536733       24.2633974506        9.3271453151
  H        14.5110499906       19.6008450432       10.6266057214
  H        14.5904730592       19.5986801568       12.4075386668
  H        15.5689315085       18.4573773276       11.4891804837
  H        10.2968488090       24.7774665846       22.3519219074
  H        12.9796126642       27.6456334448       20.6063742198
  H        14.4901619941       25.8073476006       19.9323150098
  H        11.0947428172       28.4042362659       22.0591003882
  H        10.0191008933       27.2168421811       22.8302314031
  H         9.8106775992       27.6272353128       21.1212435316
  H        11.6191090009       21.8841573297       20.9024793424
  H        10.6952138971       22.4984063573       22.2969323399
  H        12.4180520087       22.0705839575       22.4600580921
  H        13.3143122569       22.5142111595       27.3569996999
  H        14.2151168561       18.3244238661       27.0116842627
  H        15.7632845793       18.8236142267       25.1545142449
  H        12.5630950545       20.9334474859       29.1207140692
  H        12.9424926303       19.2002749624       28.9900778584
  H        11.6384931453       19.9008247388       28.0197737095
  H        15.9938996730       23.7352768505       25.4672286967
  H        14.3649231612       24.1236816491       26.0821756585
  H        14.6065803527       23.6276015285       24.3866721797
  H        24.9513146712       29.1185996130       22.1989188959
  H        28.1369938560       26.2425455368       22.3928624567
  H        26.4635856425       24.4124403515       22.4571504159
  H        27.2907922166       29.8637318520       22.6483601220
  H        27.9208062998       29.1768581173       21.1436008543
  H        28.6129750532       28.6762436183       22.6943513852
  H        22.7123572226       28.5079596598       22.1947009167
  H        22.3715763235       27.0949859507       23.2275980550
  H        22.3122892583       26.9267203922       21.4784817964
  H        27.5821371223       20.6596399796       29.3881032513
  H        25.6570146698       24.3858306660       28.4592360581
  H        25.0344290844       23.4939681275       26.2315176444
  H        27.1446822482       24.1866645751       30.4722562051
  H        27.9356739398       22.6408375053       30.8509833641
  H        26.2154085980       22.8673312881       31.1997818291
  H        26.2345449118       18.7077587417       26.9087077647
  H        27.7195363806       18.9121460674       27.8748315709
  H        27.6850479759       19.3353522121       26.1417683778
  H        21.1353745843       19.0845841465       30.4292868779
  H        17.9949121503       19.4974339290       27.5246647358
  H        19.5434669903       18.6793207934       25.7657132598
  H        17.4832112829       19.7104552975       29.9397212912
  H        18.6633474953       20.9701524211       30.3251217226
  H        18.7432107087       19.4133431709       31.1616372946
  H        23.3746764778       17.2044283190       28.4291357657
  H        23.2242285587       18.2189579186       29.8965620126
  H        23.8054856888       18.9071269837       28.3575018947
  H        21.1872949876       11.0914284262       25.6748766944
  H        20.4718499726       10.5976031823       21.4649313248
  H        20.2405642978       13.0524802061       21.2309591414
  H        20.3697821482        8.6149560323       23.0669326748
  H        20.8209164272        8.8401665354       24.7715745777
  H        22.0644876170        8.8627702002       23.5108595791
  H        21.6944792426       14.6008515158       25.6739142857
  H        21.2973219990       13.1821271865       26.6867187271
  H        20.0150043452       14.2470921384       26.0653114202
  H        13.3336545778       15.3773611413       28.3682288902
  H        17.3790453692       16.8097013721       28.6662653469
  H        17.6574927519       16.4945217550       26.2326818779
  H        14.1030157603       16.3325296741       30.4786633896
  H        15.6790503251       17.1527511840       30.5689025437
  H        15.5834482755       15.3945224170       30.7353901901
  H        12.9349854729       15.6483202248       24.9484242854
  H        12.3927900484       14.7028426225       26.3586190569
  H        13.5190169363       14.0015373760       25.1676457491
  H        13.8084417854       11.7168816690       20.8109526152
  H        13.2576191935       14.7902086626       17.8579396949
  H        15.5268086422       15.6453658866       18.3429101370
  H        11.2099353787       13.4219189167       19.3927639731
  H        11.7612077817       11.7432905732       19.5703758823
  H        11.7795395505       12.5284392943       17.9762921384
  H        16.6412780128       12.9714461334       22.3795222625
  H        17.2464598360       11.9059000764       21.1105261002
  H        15.7679646032       11.4674519350       22.0020235406
  H         9.3065472333       17.3114122088       21.9064402380
  H        11.1307316630       16.7459375530       18.0577857379
  H        13.2452771226       17.6915571551       18.9339265171
  H         8.6451491569       16.5084604891       18.3493630318
  H         7.9093901657       16.6849032144       19.9612919913
  H         8.8040001167       15.2152445232       19.5489993316
  H        10.4076379138       18.3033144638       23.6769279843
  H        11.6761307921       19.4888501900       23.2646402187
  H        12.1361533117       17.8734085235       23.7801768372
  H        15.4898844409       11.8262878056       11.4982171306
  H        13.2593868271       15.3883648703       10.6119558194
  H        13.8838642846       16.3105365098       12.8262332305
  H        13.7585625309       13.6884278910        8.8076157242
  H        12.9211281387       12.3945326937        9.6746825732
  H        14.6195792110       12.1872498594        9.2183586060
  H        16.6213242689       11.5200682703       13.4881000525
  H        15.9170985265       12.3069129083       14.9208432503
  H        17.3360696689       13.0113732090       14.1462167208
  H         8.9727419035       20.9566498116       17.1673179130
  H         8.9335458095       17.1169836772       15.2416826417
  H        11.3870157780       17.2823438861       14.8986639091
  H         6.8010653341       19.9120773760       16.4319577457
  H         7.0765128996       18.5232170156       17.4931064583
  H         6.7978616724       18.2651707788       15.7626704646
  H        12.3511388409       21.2551764885       17.7312041949
  H        10.8931673451       22.2252278295       17.3952524434
  H        12.1469490729       22.0026806114       16.1500184805
  H        15.2264864176       27.4405528071       14.0209917198
  H        15.6541408048       23.2681825965       13.0725749209
  H        16.8098977282       22.9095333358       15.2274191666
  H        15.0625253427       25.0219015025       11.2761861382
  H        14.6221784627       26.6672558467       11.7950780418
  H        13.5580740276       25.2997623375       12.1640794063
  H        16.0379309522       28.3670631591       15.9778272385
  H        17.5208035754       27.6140496153       16.6178410968
  H        15.9735576021       27.3041192971       17.4040835771
  H        24.6883121295       28.9750184673       15.0892286294
  H        24.4321333045       29.2909498496       19.3660773459
  H        22.4505806672       27.8047812469       19.3405212935
  H        25.9007600142       30.8732326077       16.4267401424
  H        26.8523100991       29.5120212325       17.0375885209
  H        26.0778534861       30.6308189264       18.1782162480
  H        23.1674504840       27.7796975321       13.8329918913
  H        21.5297902332       27.5593431962       14.5021093238
  H        22.7005717439       26.2493861250       14.6100450304
  H        14.8727237924       28.4682039229       23.2930663031
  H        16.1044359849       30.0852834792       19.5078605909
  H        17.9800022579       28.4585489964       19.4418772754
  H        13.8196589754       30.6352150731       20.5009943570
  H        14.5929327246       31.3743845661       21.9095572318
  H        13.4192869197       30.0693123626       22.1390228578
  H        17.7495050742       26.6379790009       24.0423141409
  H        16.6628943247       25.5269882708       23.2108770278
  H        15.9954769451       26.7344438968       24.3392175364
  H        30.6794524747       19.7199718685       21.6578178379
  H        27.1436532926       20.4208781187       18.2681888571
  H        31.8083697682       18.1415297539       20.2358014060
  H        31.9074689365       18.8874576825       18.6303771983
  H        30.9147080415       17.4416699884       18.8649031266
  H        28.6390002886       22.4090668537       22.5433838238