 628
 i =      780, E =     -3682.8386235055
 Au        19.1654546921       19.2511697746       17.4737002938
 Au        17.0555984193       17.5257107018       19.1668308013
 Au        19.7972628545       16.6478310891       18.3219414307
 Au        21.6131775957       18.0521226774       16.7793194596
 Au        21.1263499787       20.9465938562       15.8803483943
 Au        18.2738191477       21.7725849615       16.3265092539
 Au        16.5251177314       20.1984787295       17.8450929305
 Au        18.4201257801       19.9046485949       20.3517430502
 Au        20.5944617715       21.6800625304       18.6364464658
 Au        19.7240282259       24.4416166326       17.3496569373
 Au        17.9450008661       22.4961728086       19.3848060271
 Au        15.4080947277       21.2223158553       20.7307955185
 Au        17.8524429711       20.6697646307       23.3364073350
 Au        19.9190899248       22.1964013778       21.4721692026
 Au        22.1421343685       24.0605125730       19.8737129685
 Au        24.5805556609       22.7584124882       19.2833247794
 Au        25.3808247882       22.0590008751       15.9430454867
 Au        23.9794051165       19.3377863616       14.6576001249
 Au        17.6317272620       14.4715161943       19.8753511237
 Au        16.8783662916       15.1406036210       23.0885936499
 Au        18.5357556445       18.0269651157       24.0868562096
 Au        17.4015103441       19.3041788076       15.2765572313
 Au        17.5251177289       16.4028025307       15.8862524186
 Au        19.9642672017       18.2120675918       14.1238912517
 Au        15.0698167532       23.3437848260       17.0631708506
 Au        14.7447897716       20.8452415058       14.4561591634
  S        26.5850011851       22.5756792430       17.9114061257
  S        24.4958443438       21.4845860264       13.8214131860
  S        23.5729130426       17.2145210541       15.5718636341
  S        19.2754992085       15.9578101640       14.3695687354
  S        19.6802720766       14.2289608051       18.7238612332
  S        15.6387776115       14.6368835839       21.1475036517
  S        18.1551003669       15.7737253585       24.9572744582
  S        15.6668447651       16.8017997588       17.2645670780
  S        14.2984609877       20.5362674661       18.7661645356
  S        16.1719738050       22.3412270778       22.6570143316
  S        16.5494275168       24.3788491717       18.5625673120
  S        20.2301210075       25.5180066594       19.3807368317
  S        19.0261635806       23.7797277797       15.1862939790
  S        20.9202662117       20.2757948873       13.5323500127
  S        15.9875118823       19.2268345359       13.2816509058
  S        13.4377143590       22.3825233994       15.6553415370
  C        27.3131036318       24.2289249711       17.5532431929
  H        26.5115782811       24.9204353940       17.2553569959
  H        27.7269540717       24.5912420524       18.5028133127
  C        28.4107097597       24.1286730215       16.4796939399
  H        27.9675208208       23.7217033800       15.5585255690
  H        29.1747135318       23.4102503123       16.8106895779
  C        29.0484264385       25.4742461970       16.2050007081
  C        30.0611989867       25.9710816333       17.0420345200
  H        30.4021435753       25.3709913384       17.8850958947
  C        30.6343058765       27.2243813067       16.8060334178
  H        31.4213401446       27.5897597477       17.4625791088
  C        30.2057678344       28.0026772340       15.7250638184
  H        30.6570277527       28.9744365663       15.5360023313
  C        29.1991129482       27.5180793551       14.8841241523
  H        28.8650855650       28.1113263412       14.0351783950
  C        28.6241554922       26.2660772784       15.1267097458
  H        27.8400645048       25.8937112218       14.4684417037
  C        25.9713448246       21.2872011733       12.7288741743
  H        25.5764599908       20.8828453094       11.7869952668
  H        26.3266216789       22.3067356896       12.5285866118
  C        27.1127228787       20.4092802115       13.2595031126
  C        28.2965618790       19.3765246027       11.2661901713
  C        29.3327410600       19.3514879877       10.3274194595
  C        30.3507248923       20.3090342830       10.3798629039
  C        30.3259646822       21.2880708310       11.3784716124
  C        29.2880195277       21.3081669414       12.3151339910
  C        28.2586859305       20.3539686393       12.2732103909
  C        23.1081502845       16.1135316462       14.1659171315
  H        22.1881026953       16.4850158525       13.6969852469
  H        23.9237216603       16.1988034041       13.4378474628
  C        22.9515198458       14.6654857102       14.6574699393
  H        23.8441702344       14.3856833533       15.2384602542
  H        22.0988623504       14.6132341093       15.3485549848
  C        22.7569865537       13.6805656213       13.5209986802
  C        21.5803248650       12.9242040688       13.4124385940
  H        20.7910184131       13.0561189038       14.1510144823
  C        21.4078389297       12.0008867851       12.3744584395
  H        20.4912944838       11.4153274469       12.3271017172
  C        22.4108768725       11.8273867856       11.4167169985
  H        22.2811884319       11.1107599175       10.6084206248
  C        23.5895515665       12.5761193112       11.5108407987
  H        24.3791879305       12.4431927573       10.7743690231
  C        23.7600494328       13.4890261596       12.5550974106
  H        24.6871440853       14.0563457046       12.6255086009
  C        18.4187698087       15.5964458680       12.7715160519
  C        19.3762511419       15.6724592260       11.5712728220
  C        18.6475169899       15.3328926248       10.2885298182
  C        17.7935676913       16.2697145278        9.6824611321
  H        17.6897046676       17.2610113854       10.1230748696
  C        17.0855032906       15.9477408600        8.5207436518
  H        16.4344515113       16.6883131380        8.0608262495
  C        17.2204375730       14.6794948079        7.9450254552
  H        16.6728327171       14.4289608315        7.0389871929
  C        18.0700162451       13.7400007820        8.5370173487
  H        18.1863284474       12.7543748707        8.0912326938
  C        18.7760477336       14.0651935230        9.7003056590
  H        19.4425278890       13.3344790205       10.1572396042
  C        19.3065910106       13.3814138274       17.1373096700
  H        18.6463297138       14.0250696521       16.5420240292
  H        20.2698329075       13.3148196721       16.6129259613
  C        18.6957053049       11.9870773164       17.3381420952
  C        18.4901376121       11.2574961263       16.0253678325
  C        17.6527942887       11.7858488101       15.0271394582
  C        17.4572193428       11.1105380852       13.8186729079
  C        18.1011562789        9.8904084387       13.5836540826
  C        18.9437702926        9.3574961547       14.5634028476
  C        19.1360740359       10.0379518353       15.7707780432
  C        14.8826533213       12.9519727420       21.2013945334
  H        14.0035468105       13.0630482133       21.8492372952
  H        14.5145200888       12.8056719583       20.1762558494
  C        15.7540044955       11.7640628568       21.6193015365
  C        17.1351523397       11.0166215903       23.5970309974
  C        17.2776971811       10.6474926542       24.9379629383
  C        16.1997056278       10.7689160857       25.8199085063
  C        14.9811899468       11.2642867055       25.3461285217
  C        14.8386631565       11.6219975865       24.0016295335
  C        15.9120563097       11.5000284205       23.1046995573
  C        16.9758339930       15.9122127842       26.3703666352
  H        17.4216851862       16.6459946012       27.0536351454
  H        16.0336315630       16.3359338648       25.9993561381
  C        16.7528577424       14.5627812331       27.0774621202
  H        16.4528713000       13.8041863404       26.3403671002
  H        15.8985427310       14.6938659342       27.7613230210
  C        18.2160589975       14.6182391697       29.1438225740
  H        17.5411232518       15.3645247434       29.5613674351
  C        19.3277037009       14.2018749726       29.8820409744
  H        19.5165632538       14.6255073986       30.8661746291
  C        20.1942811908       13.2368467582       29.3566745490
  H        21.0528281151       12.9024118593       29.9361010576
  C        19.9435730431       12.7013017867       28.0896387927
  H        20.6123511939       11.9504627920       27.6724701823
  C        18.8321947249       13.1257237884       27.3525519043
  H        18.6388035274       12.7058017480       26.3671187265
  C        17.9503208122       14.0857472421       27.8710387350
  C        14.9454153978       15.1497747274       17.6440081375
  H        15.7372558353       14.4915669030       18.0285182031
  H        14.2397108943       15.3276159286       18.4663142131
  C        14.2247267651       14.5207359089       16.4397117832
  H        14.9591703028       14.3019287500       15.6511258329
  H        13.5087733461       15.2378168550       16.0136581609
  C        13.5019170682       13.2586387197       16.8645068919
  C        12.1847463797       13.3218876338       17.3482687943
  H        11.6721754532       14.2826448619       17.3753003650
  C        11.5274707316       12.1712884021       17.7952141047
  H        10.5047968335       12.2412597224       18.1605677543
  C        12.1787816300       10.9335230537       17.7670770205
  H        11.6677141323       10.0368565686       18.1111528319
  C        13.4893609683       10.8562917892       17.2851841509
  H        14.0028247235        9.8976382999       17.2497666721
  C        14.1434239264       12.0100090801       16.8396862584
  H        15.1611327663       11.9364176288       16.4578396753
  C        13.4898361626       18.9188713055       19.1097256543
  H        13.2334101577       18.5059491028       18.1257932907
  H        14.2219946794       18.2518221919       19.5817948750
  C        12.2373024925       19.1191632721       19.9753729181
  C        11.3258246631       17.9074505596       20.0255543465
  C        11.8284162286       16.6023099639       20.1610572807
  H        12.9042875757       16.4407956902       20.2238034434
  C        10.9675973095       15.5004891636       20.2162687658
  H        11.3815745092       14.4988354865       20.3168327996
  C         9.5829442655       15.6825970427       20.1400377812
  H         8.9128421314       14.8264178894       20.1820819555
  C         9.0679602035       16.9758099268       20.0053270284
  H         7.9929622968       17.1315459062       19.9414964193
  C         9.9328436379       18.0728494342       19.9449167177
  H         9.5250043741       19.0762117944       19.8313942550
  C        14.6944334744       22.3113965185       23.7683046002
  H        14.5176080519       21.2819560123       24.1007389305
  H        14.9868951276       22.9007515087       24.6474688065
  C        13.4411558415       22.9016664504       23.1020874812
  C        12.2662497749       22.8893583839       24.0572696312
  C        11.8102609752       24.0723986213       24.6585522383
  H        12.2951160383       25.0154610127       24.4083648480
  C        10.7444655745       24.0511060828       25.5651786955
  H        10.4028402763       24.9787704824       26.0195954331
  C        10.1194445773       22.8431525884       25.8874346223
  H         9.2945958107       22.8238204880       26.5963085575
  C        10.5621762633       21.6573000873       25.2907915932
  H        10.0770326635       20.7138778995       25.5325739097
  C        11.6252269222       21.6821178518       24.3839856629
  H        11.9677516790       20.7566821668       23.9208881608
  C        15.4771039583       25.0240842401       19.9220092361
  H        14.6639268229       25.5747601840       19.4336536541
  H        15.0432244164       24.1821823259       20.4759128396
  C        16.2969353409       25.9460281818       20.8410473379
  H        16.8366337404       26.6763897316       20.2203564017
  H        17.0591574698       25.3517402858       21.3640665095
  C        15.4194452118       26.6729752826       21.8389508079
  C        15.3993927143       26.3013191421       23.1916814054
  H        16.0364962321       25.4845400701       23.5305926447
  C        14.5797919392       26.9717865741       24.1072501182
  H        14.5829893373       26.6699274615       25.1533200273
  C        13.7624357955       28.0240899149       23.6835891556
  H        13.1275231531       28.5477718618       24.3950692431
  C        13.7738793498       28.4043905538       22.3369266789
  H        13.1473440335       29.2267096617       21.9980995551
  C        14.5959078561       27.7344626761       21.4264914328
  H        14.6069490348       28.0428303328       20.3816903643
  C        20.7297935285       27.2116699520       18.8213796261
  H        21.5010252609       27.5665201417       19.5184240462
  H        21.1706765005       27.1605000345       17.8204110849
  C        19.4890584374       28.1232031118       18.8622042286
  H        18.7253952988       27.7268953363       18.1778348937
  H        19.0620806312       28.0845613015       19.8749749610
  C        19.8169250731       29.5556528796       18.4992425254
  C        20.3705489504       30.4245160919       19.4544884319
  H        20.5488765467       30.0554218961       20.4643220072
  C        20.6840257393       31.7470010374       19.1270295891
  H        21.1064167649       32.4074029027       19.8816216011
  C        20.4483065177       32.2243558574       17.8328473857
  H        20.6868940861       33.2546058676       17.5774298403
  C        19.8955748330       31.3700600530       16.8736100840
  H        19.6962672419       31.7357987820       15.8681560501
  C        19.5849937132       30.0465523965       17.2050100356
  H        19.1429945743       29.3896208951       16.4563950842
  C        17.6403690900       24.9524199276       14.8407390408
  C        18.1393277968       26.4058287989       14.8891903501
  C        17.0347041457       27.4225019017       14.6946043320
  C        16.0667929829       27.6242215006       15.6946274839
  C        15.0670829584       28.5889299983       15.5406784027
  C        15.0162400498       29.3714395401       14.3809570625
  C        15.9654016596       29.1726350115       13.3741523081
  C        16.9626935289       28.2033324234       13.5305737077
  C        19.5894823623       21.1703072001       12.6121739881
  H        19.2007869074       20.4589105406       11.8737541071
  H        18.7829175525       21.4197214860       13.3114175839
  C        20.1767981810       22.4130283426       11.9273611633
  C        19.2328783424       23.0510979910       10.9256491909
  C        17.8868056814       23.3078039114       11.2360726640
  H        17.4943846702       23.0131464762       12.2083390585
  C        17.0387789256       23.9282967731       10.3130293944
  H        16.0007434072       24.1247355081       10.5770336123
  C        17.5213111303       24.2997134564        9.0537243187
  H        16.8617484716       24.7827598867        8.3360681699
  C        18.8547834538       24.0390381283        8.7247029905
  H        19.2387457566       24.3138394576        7.7443593498
  C        19.6982821499       23.4188885975        9.6526645321
  H        20.7342688870       23.2120842987        9.3878238203
  C        14.9373221720       17.7149767974       13.4396576422
  H        15.5837819068       16.8634061407       13.1893191907
  H        14.6295743816       17.5966091445       14.4838540901
  C        13.7228835644       17.7688547663       12.4969827775
  H        13.0997744447       18.6320351028       12.7719996316
  H        14.0668852678       17.9364619097       11.4666810765
  C        12.9240539571       16.4861051412       12.5823958986
  C        11.8564575425       16.3636924894       13.4859918840
  C        11.1527012525       15.1609814727       13.6070053416
  C        11.5087009471       14.0577651839       12.8247354356
  C        12.5674558257       14.1683688217       11.9175352571
  C        13.2685172941       15.3726495430       11.7992122496
  C        12.9042073670       23.6247268419       14.4026641750
  H        12.1107769099       23.1223115174       13.8334946093
  H        12.4424805430       24.4458424353       14.9663996220
  C        13.9961061042       24.1463855116       13.4579827426
  H        14.7383649018       24.7064189909       14.0425036037
  H        14.5156676617       23.2756641644       13.0266218597
  C        13.4195459992       25.0129344139       12.3595632967
  C        13.4552205228       26.4127331661       12.4468251874
  C        12.8930337876       27.2063942102       11.4412719405
  C        12.2845260154       26.6118350544       10.3318407722
  C        12.2464941739       25.2167273465       10.2310451998
  C        12.8099019254       24.4264990493       11.2371774935
 Au        21.9270949051       21.8709725515       23.6161719012
 Au        24.0343999601       23.5920807032       21.9228864574
 Au        21.2884385996       24.4702493165       22.7639071757
 Au        19.4820906890       23.0680805294       24.3194858178
 Au        19.9549770995       20.1751624170       25.2150595350
 Au        22.8030840355       19.3474306605       24.7490748136
 Au        24.5653154314       20.9158144370       23.2417638829
 Au        22.6719165075       21.2087866914       20.7399942728
 Au        20.4963954819       19.4352052005       22.4569618357
 Au        21.3572755295       16.6674524040       23.7373108701
 Au        23.1455789316       18.6146442356       21.7051962672
 Au        25.6828880753       19.8904215824       20.3668719151
 Au        23.2411331350       20.4505451789       17.7528647374
 Au        21.1716148886       18.9182681593       19.6207546200
 Au        18.9471905033       17.0538652827       21.2170775021
 Au        16.5095463588       18.3569615238       21.8081067147
 Au        15.7129636528       19.0571512032       25.1458594167
 Au        17.1268496868       21.7677126946       26.4354888246
 Au        23.4566929874       26.6471314550       21.2158692282
 Au        24.2061835243       25.9772708696       18.0005600562
 Au        22.5514642236       23.0910958851       17.0057552077
 Au        23.6976360719       21.8031316064       25.8118455668
 Au        23.5696824923       24.7070490421       25.2057582041
 Au        21.1382747758       22.8863181055       26.9693294432
 Au        26.0151975938       17.7504645176       24.0443474425
 Au        26.3346585861       20.2465755929       26.6563652640
  S        14.5040417394       18.5471738248       23.1786002008
  S        16.6144961583       19.6175915260       27.2642112649
  S        17.5268491934       23.9000767921       25.5385945960
  S        21.8242265790       25.1431961934       26.7309204655
  S        21.4087971309       26.8897202634       22.3683143407
  S        25.4476644114       26.4799000254       19.9408801996
  S        22.9251505814       25.3434881398       16.1356103521
  S        25.4254503878       24.3135012343       23.8227753303
  S        26.7951866958       20.5674895357       22.3333902467
  S        24.9233768013       18.7807798680       18.4336232690
  S        24.5404778131       16.7317679003       22.5279922199
  S        20.8570258306       15.5905634456       21.7058927269
  S        22.0405769269       17.3468070066       25.8984798451
  S        20.1957934444       20.8184668238       27.5700824087
  S        25.1083599171       21.8942130422       27.8089380337
  S        27.6369517197       18.6936301317       25.4750889981
  C        13.7707995555       16.8960031997       23.5369043594
  H        14.5693035382       16.2038496009       23.8410824201
  H        13.3615756831       16.5317557568       22.5860678430
  C        12.6674121816       17.0017021774       24.6041222761
  H        13.1047308139       17.4172287652       25.5242639722
  H        11.9031770782       17.7153352931       24.2634080506
  C        12.0320923704       15.6567256944       24.8872169662
  C        11.0298400656       15.1460945036       24.0458635690
  H        10.6946492143       15.7351205080       23.1927391919
  C        10.4596155940       13.8931376802       24.2906098654
  H         9.6806538728       13.5169846775       23.6305385716
  C        10.8803601364       13.1290674304       25.3847205937
  H        10.4310405212       12.1577278170       25.5804403091
  C        11.8763944175       13.6274927230       26.2301836980
  H        12.2042589235       13.0455008744       27.0892610515
  C        12.4484309048       14.8790899558       25.9788934437
  H        13.2240075065       15.2626180331       26.6408443195
  C        15.1489567764       19.8101561389       28.3706224066
  H        15.5519992034       20.2114453538       29.3103514542
  H        14.7969492344       18.7894050066       28.5705020021
  C        14.0016388917       20.6880335181       27.8529801851
  C        12.8256309427       21.7126300100       29.8552535505
  C        11.7960644790       21.7307230660       30.8014252109
  C        10.7837628646       20.7668400645       30.7558617885
  C        10.8075990283       19.7883479130       29.7567207189
  C        11.8389445110       19.7751413490       28.8126709735
  C        12.8626552002       20.7357071510       28.8477097645
  C        17.9982005070       24.9818107637       26.9574436979
  H        18.9205746196       24.6034371489       27.4162769998
  H        17.1863850966       24.8855075154       27.6882750057
  C        18.1527267594       26.4370133368       26.4873552045
  H        17.2553666884       26.7273744856       25.9188439528
  H        18.9992635703       26.4991330141       25.7896056539
  C        18.3599584296       27.4034660913       27.6375333546
  C        19.5345897897       28.1639132647       27.7401911858
  H        20.3126379140       28.0487036049       26.9869717186
  C        19.7192231189       29.0702412767       28.7910028583
  H        20.6338933196       29.6589641266       28.8341202323
  C        18.7307672617       29.2225380398       29.7673809340
  H        18.8697407219       29.9264222132       30.5852919661
  C        17.5544009836       28.4694184200       29.6793873503
  H        16.7760182779       28.5856740117       30.4305093760
  C        17.3717088738       27.5733310793       28.6226447299
  H        16.4464742769       27.0023619263       28.5577653375
  C        22.6899497271       25.4911048805       28.3272273154
  C        21.7446048165       25.3824964911       29.5343832851
  C        22.4797067855       25.7005876045       30.8190135292
  C        23.3782325106       24.7747291125       31.3759305772
  H        23.5162471082       23.8076695677       30.8926565890
  C        24.0889980033       25.0772109104       32.5411132332
  H        24.7760362654       24.3458536295       32.9617485311
  C        23.9120086451       26.3145165057       33.1704190849
  H        24.4620849211       26.5498437376       34.0790230149
  C        23.0182189498       27.2425509878       32.6277531118
  H        22.8696805270       28.2040753352       33.1147279632
  C        22.3097523003       26.9371151578       31.4604487836
  H        21.6098474032       27.6592362053       31.0413516362
  C        21.7832469973       27.7266535562       23.9604803032
  H        22.4442616713       27.0789166548       24.5505991793
  H        20.8203871898       27.7888182825       24.4861118915
  C        22.3937266981       29.1226156807       23.7697500042
  C        22.6009165497       29.8409091963       25.0885464664
  C        23.4417065092       29.3047281052       26.0796817195
  C        23.6384181676       29.9685368649       27.2942733737
  C        22.9921087944       31.1847530758       27.5428062709
  C        22.1463487336       31.7254886451       26.5701225428
  C        21.9529103399       31.0565515803       25.3564655747
  C        26.2064230565       28.1634455534       19.8845047158
  H        27.0807718257       28.0521691450       19.2302539864
  H        26.5819997428       28.3073900530       20.9072932827
  C        25.3340179839       29.3534809855       19.4752048416
  C        23.9365562321       30.1058322215       17.5112194555
  C        23.7827187451       30.4785811866       16.1724888378
  C        24.8528638488       30.3579126846       15.2809876707
  C        26.0744445186       29.8583479680       15.7425432425
  C        26.2282472551       29.4972413740       17.0848010077
  C        25.1631812977       29.6197283377       17.9916529677
  C        24.0950614741       25.2000402487       14.7143977401
  H        23.6651930441       24.4333633588       14.0578433157
  H        25.0544237144       24.8175101287       15.0854059971
  C        24.2619865690       26.5353312887       13.9681618236
  H        24.5620934819       27.3214176966       14.6755349030
  H        25.1003916791       26.4083925864       13.2634635440
  C        22.6601871166       26.2889311866       12.0206611358
  H        23.2767672931       25.4663842420       11.6596927937
  C        21.5165726384       26.6591814170       11.3078435039
  H        21.2400564057       26.1217854723       10.4029470472
  C        20.7235784848       27.7196895471       11.7602612976
  H        19.8386756611       28.0147186648       11.1994987653
  C        21.0778219147       28.3952332338       12.9316174242
  H        20.4642358565       29.2183746822       13.2933178811
  C        22.2191661974       28.0141445327       13.6465588204
  H        22.4900842252       28.5379983309       14.5615855970
  C        23.0292709882       26.9608345407       13.1982206263
  C        26.1471800016       25.9660452222       23.4456311315
  H        25.3552856650       26.6255432399       23.0634925639
  H        26.8518650580       25.7893523262       22.6222025586
  C        26.8695496222       26.5914507785       24.6508562368
  H        26.1357703563       26.8086802887       25.4404829473
  H        27.5855382748       25.8728165417       25.0743450550
  C        27.5927149773       27.8543697293       24.2290662071
  C        28.9079247516       27.7910940794       23.7399556580
  H        29.4186720774       26.8295748576       23.7066199964
  C        29.5656578833       28.9427282494       23.2964598044
  H        30.5867560620       28.8727260185       22.9267494233
  C        28.9169085610       30.1816316044       23.3336718576
  H        29.4284575196       31.0791157536       22.9924397702
  C        27.6083883586       30.2588560105       23.8210370291
  H        27.0969427347       31.2183015270       23.8634821478
  C        26.9537557352       29.1040539455       24.2629192043
  H        25.9376433091       29.1775505153       24.6490325057
  C        27.6064108410       22.1838323512       21.9909178137
  H        27.8684242094       22.5930649188       22.9749103003
  H        26.8733671189       22.8540434287       21.5248991162
  C        28.8544886463       21.9857787334       21.1182095194
  C        29.7636230640       23.1992004147       21.0668865786
  C        29.2574295685       24.5022845702       20.9246667729
  H        28.1812424479       24.6599495673       20.8577007284
  C        30.1147873205       25.6066467485       20.8682799136
  H        29.6979936275       26.6065210819       20.7618862896
  C        31.4997634882       25.4292437553       20.9503465475
  H        32.1672655522       26.2874095474       20.9071783169
  C        32.0183253019       24.1382580750       21.0922329095
  H        33.0935810598       23.9862933806       21.1607514648
  C        31.1567490109       23.0385468915       21.1535607514
  H        31.5674633770       22.0369837793       21.2724325401
  C        26.4059109357       18.8164419028       17.3289527468
  H        26.5837946177       19.8473750518       17.0018875715
  H        26.1178160578       18.2309012702       16.4457684901
  C        27.6565097009       18.2241668871       17.9984765454
  C        28.8364902524       18.2431535946       17.0497227642
  C        29.2915137881       17.0653174170       16.4376424856
  H        28.8020824365       16.1212715376       16.6748872634
  C        30.3625164058       17.0927282654       15.5373646401
  H        30.7033024424       16.1689587709       15.0744721898
  C        30.9940392446       18.3018295279       15.2325515436
  H        31.8231641240       18.3259680098       14.5288307520
  C        30.5521896284       19.4825046174       15.8399983401
  H        31.0425450527       20.4266916350       15.6121009704
  C        29.4836663290       19.4515964132       16.7401747507
  H        29.1417594036       20.3730485920       17.2115670601
  C        25.6179519152       16.0903628754       21.1705934743
  H        26.4286926570       15.5378145593       21.6608261749
  H        26.0548827772       16.9338649875       20.6214624709
  C        24.8022101463       15.1714359532       20.2448303609
  H        24.2551547212       14.4429590303       20.8612877057
  H        24.0462299822       15.7683745814       19.7158081651
  C        25.6850505453       14.4409897192       19.2540273830
  C        25.7189784146       14.8128561723       17.9016045642
  H        25.0888683230       15.6328959805       17.5574050606
  C        26.5429784771       14.1381339424       16.9930135008
  H        26.5501935726       14.4396936378       15.9468755090
  C        27.3512420513       13.0815944573       17.4235342541
  H        27.9894692024       12.5545991805       16.7174875351