 1148
 i =      998, E =     -6350.8580706472
 Au        22.4781502199       21.1786352213       22.5317535122
 Au        22.3318287746       19.4719775084       20.0691934502
 Au        20.2559730576       21.5469833095       20.6228151425
 Au        20.2732056149       19.1820229841       22.4378663009
 Au        24.5423780900       21.5052784514       20.2463078593
 Au        20.4671020523       20.8641078058       24.8767574559
 Au        22.4668619608       23.5589284936       20.7345588479
 Au        22.5262208261       18.7855092513       24.3222459091
 Au        20.4046823299       23.2501608598       23.0444398424
 Au        22.2578619749       21.8566836678       18.2868444078
 Au        18.1787630363       21.2776163554       22.9142312800
 Au        20.1073774933       19.8101220889       18.1368183886
 Au        24.6676649849       23.2109052020       22.6888662841
 Au        24.4034046663       19.7308800804       17.8527278491
 Au        18.0713916136       19.5665069554       20.4610416669
 Au        18.1623312028       23.6804519726       21.1799423735
 Au        20.0289169095       17.4955078007       20.0529170719
 Au        22.6969353460       22.8834635575       24.9757157001
 Au        24.5440520909       19.1031404366       22.0513592610
 Au        24.7663051669       20.7942777913       24.4800942505
 Au        22.4631036496       17.0986575524       21.8662877911
 Au        18.1958194826       18.8500416096       24.6595076274
 Au        24.4022525946       23.9656981299       18.4147466683
 Au        20.1569539642       23.9120742406       18.8560214177
 Au        17.9873203092       21.9307313008       18.6760603907
 Au        24.5057750639       17.2884793497       19.9201130524
 Au        16.0311007463       21.5302212207       20.8125877339
 Au        26.5913639349       19.3391585439       19.6451414378
 Au        20.1719065267       16.7929436085       24.2665115284
 Au        20.3002643561       18.4287463918       26.5814331336
 Au        22.8372660046       20.6193974653       26.7268473378
 Au        20.4510573446       25.6154700236       21.1902196368
 Au        18.4730049149       23.0092143395       25.4063696489
 Au        22.6482873807       25.2680676980       23.3045309321
 Au        22.3193146783       20.0944413981       15.8861031425
 Au        26.7097054737       20.9678616229       22.2583152369
 Au        15.9841431335       19.1418719664       22.8908978868
 Au        26.5948588205       23.6799828809       20.2534498530
 Au        20.5929390277       22.6219925770       27.3082311579
 Au        22.3205166221       24.3084874220       16.5006619249
 Au        16.2112467273       20.7836491753       25.1462049767
 Au        19.8740521572       22.3415737233       16.4834473976
 Au        24.3105495425       22.3801331233       16.1014072670
 Au        18.4228776275       20.8424567315       27.1831641683
 Au        26.5283363389       21.5657227246       17.9575693377
 Au        17.9352801927       17.1845316742       21.9095169028
 Au        22.3027752542       17.7714740541       17.5131421226
 Au        24.6228489327       25.6544419884       20.7215105394
 Au        26.6957130972       18.6499670749       23.8532921793
 Au        16.2410041073       23.4431637958       23.6640044730
 Au        24.5113589938       16.6489881760       23.8747439781
 Au        17.9884991193       24.3633508758       17.0626244259
 Au        15.9921240971       19.8181498927       18.5606198118
 Au        26.8419340401       22.9928894094       24.6589643801
 Au        19.8694335192       17.9984494023       15.8572043645
 Au        18.2288707845       25.4840708771       23.7945432242
 Au        18.1224766520       26.0592413809       19.4912656628
 Au        24.8144399185       18.2847405898       26.1395537915
 Au        18.0392550548       17.7803051942       17.9590567749
 Au        22.6413326017       16.4046661351       25.9304470367
 Au        20.7544030646       24.9436419321       25.3591145311
 Au        18.2172590106       16.4850435620       26.2726361532
 Au        21.9575725188       26.0357505437       18.8467859713
 Au        24.2914631597       18.1082248341       15.5096976134
 Au        17.8539360849       19.9875827125       16.2315364357
 Au        24.9033313450       24.9780217307       25.1028373564
 Au        24.8379358902       22.5831011264       26.8276954056
 Au        15.9810892379       24.2464008966       19.2433560921
 Au        26.6301203064       25.2902317480       22.9348711948
 Au        26.4314923215       26.0057719359       18.5910887477
 Au        16.3073186174       25.8456179937       21.6039675295
 Au        15.4577183549       17.2581126109       19.9866200134
 Au        26.9974871648       16.6090637194       21.6486121544
 Au        26.6273953075       19.9356254437       15.3020518006
 Au        26.8879128876       24.3844073056       16.1100055164
 Au        16.5744382921       24.9903045229       26.0350725567
 Au        19.7693936542       26.7446430119       16.7192807539
 Au        26.5517038303       17.0883720555       17.2194022057
 Au        24.3943843757       26.6977471528       16.5661151656
 Au        16.0504961239       22.7744774185       27.9190747861
 Au        16.1120298735       18.3712620182       27.2713833208
 Au        15.8449367307       16.4150627493       24.4783384972
 Au        23.1736368568       24.7917074423       27.9742099781
 Au        18.7399188090       25.0141724025       28.1904941794
 Au        22.3190137474       16.4796474515       13.7868625173
 Au        28.9175396512       20.3361381406       25.1991349046
 Au        20.2073582477       14.6269714692       27.7124162176
 Au        16.5538922041       22.8425694215       14.8093395061
 Au        28.3486405185       27.2475134193       20.6122556162
 Au        26.2183513417       20.3131812439       28.4357345846
 Au        13.9296067370       21.8985326914       17.7829867533
 Au        14.9576316307       27.2516873762       24.5071419471
  S        28.3342407254       22.7217495893       21.6838286750
  S        22.1436240054       18.7468353841       28.1649515400
  S        14.4513082385       22.0258938077       26.3490245559
  S        20.8683309433       15.2742235221       22.5107708012
  S        14.1016927573       18.6290346073       21.3556708520
  S        20.5410747639       21.0307765894       14.5081855972
  S        21.5003964092       15.9087675953       18.8574673936
  S        28.3736139108       23.1129031070       17.4275980628
  S        18.9627091371       28.1104547925       18.4718127254
  S        14.5043226243       23.0578974009       21.9894395670
  S        19.8218904446       27.1561070415       23.0394264303
  S        28.2238500460       18.4182043852       16.1959115657
  S        20.6696943221       25.3950554369       14.9986907000
  S        20.0039229969       16.2966505450       14.1260595472
  S        23.3994282523       27.9679290245       18.3041814460
  S        28.4982025632       18.1919865121       20.7364692405
  S        28.1185155392       27.2065048762       22.9403372519
  S        25.5713790061       14.9343505391       22.5075945986
  S        25.1381224933       21.2931830105       14.0556543048
  S        17.8749964432       14.7512940277       28.0188642791
  S        22.4804266661       14.3560332687       27.2288613735
  S        17.7477345749       19.1105815946       28.8077105047
  S        28.6291447925       18.0072223384       25.2645746805
  S        25.7836965703       18.0122789363       28.3885223864
  S        14.2526975447       19.7927425536       16.7853681111
  S        25.5993100785       25.8025261182       14.7207811576
  S        22.1012748192       23.1076035940       29.2246815121
  S        16.0546860684       24.9856429340       15.6272643896
  S        28.3893350811       27.5095343722       18.2657236821
  S        24.6592618635       16.6113492515       13.5633000969
  S        24.0573130595       26.5891835324       26.7192555805
  S        17.2561116020       15.1190008134       23.0905777062
  S        26.6895126793       22.6134770814       28.4827682006
  S        13.5813403514       24.0354818435       18.6808088102
  S        17.4411159553       23.6420080903       29.6228652229
  S        16.7791737919       15.8181051876       18.6598217801
  S        23.3274118464       27.2761719147       21.9627534695
  S        15.0154330233       27.8089815854       22.2295546502
  S        17.0623231491       20.7062484999       14.0057185558
  S        29.2294531812       22.6542172600       25.1627071003
  S        24.9381997880       15.6266637507       18.1078810360
  S        14.3399147237       17.4231882720       26.0178994078
  S        15.0194646106       26.7522742283       26.8101327803
  S        20.3164678604       26.4867055071       27.2412685281
  C        29.8907925258       22.2576268216       20.9618987198
  C        30.5530794977       23.1488481408       20.1032346525
  H        30.0301166438       24.0270828720       19.7302299041
  C        31.8868839513       22.9251749132       19.7470858206
  H        32.3648503835       23.6417749936       19.0847416237
  C        32.6053119000       21.8206796168       20.2308673886
  C        31.9158185844       20.9275186954       21.0738863899
  H        32.4237712722       20.0490507699       21.4696026967
  C        30.5845211379       21.1306671433       21.4369448651
  H        30.0857448893       20.4297917500       22.1044222564
  C        34.0834838344       21.5745961016       19.8935249441
  C        34.6580966207       22.6559667403       18.9582413980
  H        34.6137105057       23.6552466411       19.4124950955
  H        34.1224704639       22.6910762472       17.9990400605
  H        35.7126592082       22.4369719314       18.7443350475
  C        34.9115553047       21.5743913200       21.2020394816
  H        34.8322976776       22.5418404014       21.7171710710
  H        35.9728371525       21.3900373897       20.9846146722
  H        34.5710706897       20.7964868544       21.8980157920
  C        34.2368683832       20.2021221278       19.1950032647
  H        33.8688082617       19.3789357256       19.8216117220
  H        35.2935912107       20.0042936306       18.9675658308
  H        33.6749323545       20.1848751595       18.2504789815
  C        21.8096701863       19.1085347598       29.8740499446
  C        22.7358509812       19.8574781332       30.6162036372
  H        23.5408600791       20.3830956358       30.1041992570
  C        22.6454757429       19.9078915326       32.0108277824
  H        23.3868044164       20.4959136660       32.5459738414
  C        21.6382527209       19.2261269468       32.7129775266
  C        20.6971582797       18.5114889320       31.9471975561
  H        19.8862986230       17.9796549490       32.4421100255
  C        20.7728322309       18.4466950359       30.5555161928
  H        20.0403989687       17.8710551348       29.9933689411
  C        21.5447045485       19.2196429329       34.2465753538
  C        22.6563243499       20.0591263097       34.9045936212
  H        22.6061872123       21.1136922712       34.5994904472
  H        23.6562107161       19.6761625560       34.6583134412
  H        22.5489953645       20.0232049853       35.9968750913
  C        20.1782380206       19.7928944289       34.6904108713
  H        20.0739949297       20.8403702190       34.3747364714
  H        20.0858471451       19.7572805138       35.7848252060
  H        19.3390663818       19.2292199239       34.2630169150
  C        21.6686848383       17.7634938304       34.7585734142
  H        20.8794725441       17.1200152097       34.3485002310
  H        21.5893720559       17.7354213510       35.8542537473
  H        22.6374791568       17.3289064426       34.4761918214
  C        13.3142564240       20.9466540216       27.2021814867
  C        12.2170634189       20.4563995061       26.4792181740
  H        12.1239193505       20.6826035490       25.4187936776
  C        11.2299408555       19.7009186140       27.1198783839
  H        10.3915382726       19.3470626812       26.5257924131
  C        11.2947481890       19.4070536195       28.4907075266
  C        12.4067470779       19.9037909547       29.1952799120
  H        12.5083775493       19.7037395564       30.2606103580
  C        13.4013310123       20.6562530430       28.5720249572
  H        14.2488327955       21.0283839141       29.1464450620
  C        10.2172713503       18.5973236128       29.2263150480
  C         9.1063779247       18.1050756806       28.2787727132
  H         9.5042464527       17.4415931025       27.4979660922
  H         8.5816756833       18.9383432174       27.7914991005
  H         8.3614528850       17.5340200859       28.8487051862
  C        10.8642512168       17.3602385464       29.8945974845
  H        11.3398770631       16.7078790975       29.1491761480
  H        10.1018933241       16.7752997906       30.4280259976
  H        11.6323902372       17.6476949863       30.6244827174
  C         9.5679689965       19.4867219347       30.3151434742
  H        10.3097364683       19.8404049578       31.0433535283
  H         8.8016357908       18.9221186975       30.8642933188
  H         9.0889555728       20.3697742138       29.8699612477
  C        21.4810621485       13.7615949769       23.2226571664
  C        22.5638065063       13.0839806923       22.6475401134
  H        23.1328657003       13.5585077613       21.8525451727
  C        22.9188423135       11.8079716260       23.0980961698
  H        23.7739022858       11.3219625117       22.6354905141
  C        22.2078333164       11.1619587224       24.1206889913
  C        21.1206000245       11.8577024291       24.6835785172
  H        20.5360326518       11.4048264350       25.4827849049
  C        20.7575625104       13.1311042248       24.2510858936
  H        19.9073261077       13.6398555430       24.7035908434
  C        22.5723641557        9.7636770783       24.6393532395
  C        23.7715603249        9.1547897208       23.8875068187
  H        24.6769056051        9.7675530881       23.9994975706
  H        23.5641665913        9.0383327692       22.8148037677
  H        23.9934516126        8.1580009758       24.2913984126
  C        22.9362582174        9.8567869433       26.1413507293
  H        23.8015015034       10.5171466420       26.2923711690
  H        23.1882544608        8.8632962104       26.5374085872
  H        22.1060910570       10.2581033927       26.7371773569
  C        21.3599515471        8.8169113888       24.4649968675
  H        20.4773211368        9.1800504625       25.0080565721
  H        21.5999206676        7.8143134683       24.8453798107
  H        21.0847426642        8.7228858977       23.4057081072
  C        12.7827582289       17.5996006819       21.9825643150
  C        12.2535820477       16.5588967970       21.2046523959
  H        12.7375663903       16.2945371190       20.2650776997
  C        11.1029952319       15.8797297650       21.6157572689
  H        10.7255093882       15.0828955998       20.9801730111
  C        10.4304692939       16.2095513362       22.8027738889
  C        10.9839017376       17.2479673497       23.5760663754
  H        10.5104940978       17.5368725947       24.5135501921
  C        12.1342050034       17.9347379827       23.1832528641
  H        12.5298753508       18.7337281797       23.8060117706
  C         9.1413781689       15.5039311065       23.2526701922
  C         8.7010496590       14.4036132760       22.2674595600
  H         9.4602192642       13.6155531133       22.1674007535
  H         8.4904875616       14.8072404300       21.2673456617
  H         7.7801709934       13.9296169395       22.6324744952
  C         9.3581518588       14.8476883074       24.6366618697
  H        10.1499670762       14.0873739902       24.5873476483
  H         8.4354425356       14.3563311072       24.9753336975
  H         9.6443874917       15.5830316219       25.4001351026
  C         7.9986694557       16.5430275134       23.3571214622
  H         8.2328274732       17.3355211696       24.0800603997
  H         7.0684340739       16.0571650750       23.6828999160
  H         7.8111958090       17.0209321233       22.3856309696
  C        20.9380667706       21.9368449261       13.0310010799
  C        20.0937484140       22.9792491676       12.6197762426
  H        19.3231705128       23.3448341417       13.2960801780
  C        20.2228562307       23.5310167424       11.3428819321
  H        19.5509006618       24.3394899377       11.0675587207
  C        21.1795050967       23.0623267072       10.4287757662
  C        22.0276036873       22.0260335016       10.8649851566
  H        22.7906223219       21.6285688920       10.1970633787
  C        21.9227519742       21.4705213316       12.1418038982
  H        22.5906706295       20.6654800899       12.4432329519
  C        21.3088736287       23.6200758951        9.0033609207
  C        20.3176048975       24.7688675988        8.7331377234
  H        20.4762061666       25.6126880464        9.4194567562
  H        19.2739813460       24.4392684658        8.8286646587
  H        20.4531169902       25.1399534942        7.7085292710
  C        22.7421830958       24.1603779681        8.7818114693
  H        22.9614189421       24.9723262655        9.4892289355
  H        22.8484889581       24.5554326078        7.7619155401
  H        23.4995535682       23.3771814764        8.9168497526
  C        21.0278223345       22.4877887455        7.9853363462
  H        21.7277616219       21.6504225144        8.1070110623
  H        21.1275721620       22.8617961709        6.9568275680
  H        20.0089421319       22.0947248385        8.1071487159
  C        20.6955983150       14.6213454441       17.9310033026
  C        21.2200706309       14.2020622002       16.7008129465
  H        22.0315766747       14.7644825628       16.2393024349
  C        20.7145857832       13.0617762106       16.0705051353
  H        21.1467101724       12.7745270480       15.1157618524
  C        19.6804429091       12.3021875740       16.6391081838
  C        19.1629630858       12.7438706451       17.8717074892
  H        18.3499684143       12.1977290620       18.3474319066
  C        19.6562940598       13.8774188642       18.5159058695
  H        19.2423581503       14.1885952193       19.4725759079
  C        19.1112242943       11.0405218344       15.9744392600
  C        19.8181003980       10.7098986619       14.6457755087
  H        20.8918275934       10.5259712516       14.7881636521
  H        19.7039089675       11.5181770876       13.9104560700
  H        19.3808750112        9.8014127294       14.2106504255
  C        19.2861875495        9.8336446227       16.9284327705
  H        20.3478615723        9.6565411665       17.1477729296
  H        18.8741783249        8.9224679628       16.4728549646
  H        18.7698618065        9.9934740269       17.8841301778
  C        17.6056856251       11.2485205978       15.6840470625
  H        17.0351970151       11.4484226309       16.6006956524
  H        17.1813879352       10.3511042462       15.2121896471
  H        17.4497897950       12.1011883222       15.0092117229
  C        29.6592557690       22.4808585118       16.3600720786
  C        30.3025479886       21.2770796278       16.6726968097
  H        29.9266774818       20.6580853341       17.4839595123
  C        31.4219935529       20.8631866339       15.9409788030
  H        31.8793449534       19.9135443326       16.2072183748
  C        31.9457042723       21.6296331706       14.8887304252
  C        31.2880697688       22.8396370607       14.5942083098
  H        31.6571619113       23.4740582918       13.7897989701
  C        30.1677193534       23.2612718566       15.3071051237
  H        29.6760965190       24.1981180347       15.0512772481
  C        33.1786681514       21.2105538867       14.0744513747
  C        33.7337125806       19.8425702371       14.5144319512
  H        32.9921867969       19.0409839299       14.3894999521
  H        34.0588246152       19.8508987399       15.5640679993
  H        34.6076730097       19.5839317484       13.9019486635
  C        32.8041678846       21.1196263487       12.5747610150
  H        32.0166281945       20.3710126948       12.4095127887
  H        33.6807933554       20.8291596990       11.9792920512
  H        32.4398096503       22.0791290401       12.1847859958
  C        34.2934592826       22.2697533224       14.2561335004
  H        33.9667375232       23.2642748909       13.9253410704
  H        35.1814788209       21.9959719675       13.6696188786
  H        34.5922200789       22.3490134584       15.3106514598
  C        17.5805174865       29.1021556119       17.9182639663
  C        17.7548655403       30.0207223819       16.8737833274
  H        18.6889519027       30.0287082820       16.3145967077
  C        16.7446164981       30.9381887679       16.5653461753
  H        16.9222939523       31.6426818441       15.7564815417
  C        15.5367152548       30.9801377577       17.2805207918
  C        15.3726463013       30.0321221841       18.3081526213
  H        14.4519274150       30.0123663752       18.8899285297
  C        16.3699022197       29.1102516924       18.6289577539
  H        16.2204335117       28.4041414731       19.4450544517
  C        14.4412679482       32.0242439764       17.0122515827
  C        14.7872824060       32.9440389023       15.8253216719
  H        14.9101215725       32.3781711440       14.8912114547
  H        15.7078096685       33.5163414014       16.0043507664
  H        13.9751424527       33.6664037741       15.6687890374
  C        13.1028531923       31.3164662008       16.7001395867
  H        13.1857218565       30.7027660957       15.7935860553
  H        12.3089123802       32.0579422660       16.5347664274
  H        12.7826621793       30.6633311810       17.5226711120
  C        14.2615357497       32.9064386632       18.2724804547
  H        13.9786435316       32.3068150349       19.1477646658
  H        13.4714732100       33.6518125570       18.1060506942
  H        15.1895846272       33.4398251044       18.5182593069
  C        12.9131177123       22.4175280569       22.4573443916
  C        12.2256300930       21.5711711480       21.5750521807
  H        12.7463409371       21.1590287235       20.7128541544
  C        10.8751070804       21.2802854886       21.7836902209
  H        10.3794589006       20.6240772343       21.0732323655
  C        10.1616783081       21.8198673677       22.8654578373
  C        10.8775806103       22.6422926899       23.7566996879
  H        10.3769577586       23.0719687135       24.6230778457
  C        12.2278233182       22.9417347601       23.5679181767
  H        12.7451471664       23.5940494182       24.2688401349
  C         8.6652832192       21.5537846387       23.0890477086
  C         8.0534692437       20.6818935265       21.9751120796
  H         8.5270442373       19.6914989496       21.9252191452
  H         8.1439904888       21.1583011380       20.9893054595
  H         6.9841328383       20.5284302225       22.1721221411
  C         8.4644780401       20.8245606319       24.4390909207
  H         8.9762013927       19.8519579560       24.4313182842
  H         7.3960078079       20.6459082462       24.6237203539
  H         8.8592609799       21.4083389037       25.2808207376
  C         7.9024505361       22.9006989465       23.1192210670
  H         8.2630671980       23.5559943528       23.9229362469
  H         6.8295384239       22.7293391463       23.2832750158
  H         8.0205276182       23.4395120658       22.1686953761
  C        19.2104379226       28.7137751736       22.4297984298
  C        18.0647997814       29.3298668734       22.9451424748
  H        17.4410603679       28.8006931062       23.6649122032
  C        17.7271633466       30.6293750870       22.5493019071
  H        16.8157362401       31.0630110221       22.9522178201
  C        18.5250926818       31.3635648579       21.6585065562
  C        19.6760609930       30.7263075398       21.1587860147
  H        20.3206802644       31.2461261510       20.4525843713
  C        20.0158731932       29.4264149880       21.5227206260
  H        20.9085397652       28.9566075268       21.1135266140
  C        18.1984139499       32.7981836730       21.2178581866
  C        16.8709982676       33.3056695225       21.8127584847
  H        16.8961565922       33.3330811842       22.9109712899
  H        16.0223740258       32.6800464387       21.5033194596
  H        16.6752778825       34.3279024952       21.4622817458
  C        19.3333718310       33.7481189193       21.6734023316
  H        19.4272129665       33.7607877284       22.7679435618
  H        19.1300293126       34.7748258804       21.3381428851
  H        20.3039339291       33.4449942943       21.2589805499
  C        18.0898573628       32.8488314485       19.6753735548
  H        19.0299832664       32.5538283455       19.1909934535
  H        17.8482271781       33.8689422722       19.3450558969
  H        17.3069356444       32.1709988972       19.3106267098
  C        28.7658811652       17.5245884458       14.7352998221
  C        29.6896748441       18.1504686683       13.8853456789
  H        30.0244807268       19.1630080712       14.1049990663
  C        30.1714256295       17.4848844114       12.7533514385
  H        30.8808715601       18.0054754689       12.1146556223
  C        29.7564912885       16.1832353879       12.4282191681
  C        28.8385190851       15.5708447425       13.3002349483
  H        28.4804694912       14.5645890305       13.0895761239
  C        28.3486783533       16.2203399339       14.4335981960
  H        27.6213604423       15.7286870783       15.0791024855
  C        30.2475068670       15.4345430648       11.1807739605
  C        31.2365315463       16.2721951685       10.3476629985
  H        32.1373265824       16.5336774037       10.9198403192
  H        30.7783003632       17.2017249957        9.9823279874
  H        31.5586629036       15.6964382143        9.4698509871
  C        30.9594685444       14.1292553907       11.6119452373
  H        31.8314585939       14.3457481891       12.2442529374
  H        31.3059789842       13.5743569174       10.7291417119
  H        30.2899330856       13.4699570421       12.1795963245
  C        29.0335858948       15.0840755431       10.2858167082
  H        28.3130186250       14.4425065625       10.8096302930
  H        29.3667162428       14.5485757332        9.3861891730
  H        28.4998100609       15.9912968316        9.9704993528
  C        21.3701818271       26.4845673246       13.7697835386
  C        22.4859585932       26.0836398400       13.0244476600
  H        22.9959534939       25.1557699401       13.2733275616
  C        22.9547840665       26.8748662585       11.9691066548
  H        23.8360183487       26.5340298111       11.4312813149
  C        22.3305363639       28.0798445472       11.6129974183
  C        21.2030662152       28.4578707097       12.3673249156
  H        20.6791044168       29.3814463147       12.1258991536
  C        20.7235588127       27.6844318917       13.4228767253
  H        19.8429707505       28.0004650192       13.9808574388
  C        22.8162717043       28.9724509168       10.4609985128
  C        24.0761646697       28.4103158461        9.7752345918
  H        23.8912198623       27.4230738256        9.3293500131
  H        24.9194505031       28.3207463927       10.4742248612
  H        24.3869984782       29.0832108342        8.9649730273
  C        21.6972894549       29.0919171280        9.3972262979
  H        21.4438023465       28.1067667953        8.9816442250
  H        22.0231266096       29.7371838735        8.5695653977
  H        20.7795755222       29.5245445162        9.8172906515
  C        23.1506625567       30.3834388427       11.0044594931
  H        22.2751791915       30.8621643750       11.4627914854
  H        23.4975421767       31.0348461337       10.1903074829
  H        23.9426332881       30.3361387214       11.7649911196
  C        19.2893469416       16.9501364587       12.6155119357
  C        18.4248062261       16.1119039135       11.8987703434
  H        18.2182754310       15.1096322291       12.2695586493
  C        17.8392441876       16.5543289141       10.7056687658
  H        17.1766602325       15.8760093186       10.1745680902
  C        18.0897706927       17.8369616251       10.1956853607
  C        18.9606072377       18.6619339496       10.9337298531
  H        19.1836756157       19.6692818013       10.5856723007
  C        19.5519778722       18.2354625004       12.1210786416
  H        20.2060749962       18.9039786248       12.6769984383
  C        17.4635558543       18.3580849622        8.8941809198
  C        16.4997832356       17.3374739797        8.2590058484
  H        15.6621638177       17.0978504108        8.9291890719
  H        17.0086105890       16.4007970886        7.9929622054
  H        16.0758890007       17.7555720762        7.3363113800
  C        16.6717700797       19.6562029548        9.1854790189
  H        15.8680913809       19.4748229884        9.9127096726
  H        16.2213009066       20.0400213043        8.2597912930
  H        17.3172148486       20.4442749471        9.5949368187
  C        18.5901517275       18.6620667190        7.8761575483
  H        19.2924092451       19.4130119602        8.2623685642
  H        18.1647920506       19.0499098411        6.9401204173
  H        19.1639274271       17.7554380651        7.6404509047
  C        22.6390776955       29.3768474072       17.5145849099
  C        22.4403527579       30.5135251837       18.3131015379